 Entering Gaussian System, Link 0=g16
 Initial command:
 /hpc/applications/gaussian/g16a/g16/l1.exe "/scratch/users/zilins/forcefielddev/francessco.molvib/frg_mp2/Gau-57161.inp" -scrdir="/scratch/users/zilins/forcefielddev/francessco.molvib/frg_mp2/"
 Entering Link 1 = /hpc/applications/gaussian/g16a/g16/l1.exe PID=     57162.
  
 Copyright (c) 1988,1990,1992,1993,1995,1998,2003,2009,2016,
            Gaussian, Inc.  All Rights Reserved.
  
 This is part of the Gaussian(R) 16 program.  It is based on
 the Gaussian(R) 09 system (copyright 2009, Gaussian, Inc.),
 the Gaussian(R) 03 system (copyright 2003, Gaussian, Inc.),
 the Gaussian(R) 98 system (copyright 1998, Gaussian, Inc.),
 the Gaussian(R) 94 system (copyright 1995, Gaussian, Inc.),
 the Gaussian 92(TM) system (copyright 1992, Gaussian, Inc.),
 the Gaussian 90(TM) system (copyright 1990, Gaussian, Inc.),
 the Gaussian 88(TM) system (copyright 1988, Gaussian, Inc.),
 the Gaussian 86(TM) system (copyright 1986, Carnegie Mellon
 University), and the Gaussian 82(TM) system (copyright 1983,
 Carnegie Mellon University). Gaussian is a federally registered
 trademark of Gaussian, Inc.
  
 This software contains proprietary and confidential information,
 including trade secrets, belonging to Gaussian, Inc.
  
 This software is provided under written license and may be
 used, copied, transmitted, or stored only in accord with that
 written license.
  
 The following legend is applicable only to US Government
 contracts under FAR:
  
                    RESTRICTED RIGHTS LEGEND
  
 Use, reproduction and disclosure by the US Government is
 subject to restrictions as set forth in subparagraphs (a)
 and (c) of the Commercial Computer Software - Restricted
 Rights clause in FAR 52.227-19.
  
 Gaussian, Inc.
 340 Quinnipiac St., Bldg. 40, Wallingford CT 06492
  
  
 ---------------------------------------------------------------
 Warning -- This program may not be used in any manner that
 competes with the business of Gaussian, Inc. or will provide
 assistance to any competitor of Gaussian, Inc.  The licensee
 of this program is prohibited from giving any competitor of
 Gaussian, Inc. access to this program.  By using this program,
 the user acknowledges that Gaussian, Inc. is engaged in the
 business of creating and licensing software in the field of
 computational chemistry and represents and warrants to the
 licensee that it is not a competitor of Gaussian, Inc. and that
 it will not use this program in any manner prohibited above.
 ---------------------------------------------------------------
  

 Cite this work as:
 Gaussian 16, Revision A.03,
 M. J. Frisch, G. W. Trucks, H. B. Schlegel, G. E. Scuseria, 
 M. A. Robb, J. R. Cheeseman, G. Scalmani, V. Barone, 
 G. A. Petersson, H. Nakatsuji, X. Li, M. Caricato, A. V. Marenich, 
 J. Bloino, B. G. Janesko, R. Gomperts, B. Mennucci, H. P. Hratchian, 
 J. V. Ortiz, A. F. Izmaylov, J. L. Sonnenberg, D. Williams-Young, 
 F. Ding, F. Lipparini, F. Egidi, J. Goings, B. Peng, A. Petrone, 
 T. Henderson, D. Ranasinghe, V. G. Zakrzewski, J. Gao, N. Rega, 
 G. Zheng, W. Liang, M. Hada, M. Ehara, K. Toyota, R. Fukuda, 
 J. Hasegawa, M. Ishida, T. Nakajima, Y. Honda, O. Kitao, H. Nakai, 
 T. Vreven, K. Throssell, J. A. Montgomery, Jr., J. E. Peralta, 
 F. Ogliaro, M. J. Bearpark, J. J. Heyd, E. N. Brothers, K. N. Kudin, 
 V. N. Staroverov, T. A. Keith, R. Kobayashi, J. Normand, 
 K. Raghavachari, A. P. Rendell, J. C. Burant, S. S. Iyengar, 
 J. Tomasi, M. Cossi, J. M. Millam, M. Klene, C. Adamo, R. Cammi, 
 J. W. Ochterski, R. L. Martin, K. Morokuma, O. Farkas, 
 J. B. Foresman, and D. J. Fox, Gaussian, Inc., Wallingford CT, 2016.
 
 ******************************************
 Gaussian 16:  ES64L-G16RevA.03 25-Dec-2016
                16-Jan-2019 
 ******************************************
 %chk=frg_mp2.chk
 %mem=250GB
 %nprocshared=4
 Will use up to    4 processors via shared memory.
 ---------------------------------------------------------------
 # opt=tight mp2/6-31g(d) nosymm pop=(mk,dipole) density=current
 ---------------------------------------------------------------
 1/7=10,18=20,19=15,38=1/1,3;
 2/9=110,12=2,15=1,17=6,18=5,40=1/2;
 3/5=1,6=6,7=1,11=9,25=1,30=1,71=1/1,2,3;
 4//1;
 5/5=2,38=5/2;
 8/6=4,10=2/1;
 9/15=2,16=-3/6;
 10/5=1,31=1/2;
 6/7=2,8=2,9=2,10=2,15=24,20=1,22=-1/1,2;
 7/12=2,30=1/1,2,3,16;
 1/7=10,18=20,19=15/3(2);
 2/9=110,15=1/2;
 99//99;
 2/9=110,15=1/2;
 3/5=1,6=6,7=1,11=9,25=1,30=1,71=1/1,2,3;
 4/5=5,16=3,69=1/1;
 5/5=2,38=5/2;
 8/6=4,10=2/1;
 9/15=2,16=-3/6;
 10/5=1,31=1/2;
 7/12=2,30=1/1,2,3,16;
 1/7=10,18=20,19=15/3(-8);
 2/9=110,15=1/2;
 6/7=2,8=2,9=2,10=2,15=24,20=1,22=-1/1,2;
 99//99;
 -----------
 frg_mp2 opt
 -----------
 Symbolic Z-matrix:
 Charge =  0 Multiplicity = 1
 C                    -1.98131   0.077     0. 
 C                    -2.67057   1.33528   0. 
 C                    -0.51712   2.4904    0. 
 C                     0.19303   1.33528   0. 
 C                    -0.05336  -1.21454   0. 
 C                    -1.23877  -2.14405   0. 
 H                    -3.77014   1.3277    0. 
 H                    -0.01097   3.46739   0. 
 H                     1.2926    1.3277    0. 
 H                    -1.23877  -2.79663   0.90929 
 N                    -1.96042   2.4904    0. 
 N                    -0.49623   0.077     0. 
 N                    -2.42418  -1.21454   0. 
 O                     1.29479  -1.6914    0. 
 O                    -1.23877  -2.97783  -1.16177 
 O                    -1.59734  -4.20275  -0.82502 
 H                    -1.60387  -4.76089  -1.60606 
 

 GradGradGradGradGradGradGradGradGradGradGradGradGradGradGradGradGradGrad
 Berny optimization.
 Initialization pass.
                           ----------------------------
                           !    Initial Parameters    !
                           ! (Angstroms and Degrees)  !
 --------------------------                            --------------------------
 ! Name  Definition              Value          Derivative Info.                !
 --------------------------------------------------------------------------------
 ! R1    R(1,2)                  1.4347         estimate D2E/DX2                !
 ! R2    R(1,12)                 1.4851         estimate D2E/DX2                !
 ! R3    R(1,13)                 1.3654         estimate D2E/DX2                !
 ! R4    R(2,7)                  1.0996         estimate D2E/DX2                !
 ! R5    R(2,11)                 1.3559         estimate D2E/DX2                !
 ! R6    R(3,4)                  1.3559         estimate D2E/DX2                !
 ! R7    R(3,8)                  1.1003         estimate D2E/DX2                !
 ! R8    R(3,11)                 1.4433         estimate D2E/DX2                !
 ! R9    R(4,9)                  1.0996         estimate D2E/DX2                !
 ! R10   R(4,12)                 1.4347         estimate D2E/DX2                !
 ! R11   R(5,6)                  1.5064         estimate D2E/DX2                !
 ! R12   R(5,12)                 1.3654         estimate D2E/DX2                !
 ! R13   R(5,14)                 1.43           estimate D2E/DX2                !
 ! R14   R(6,10)                 1.1192         estimate D2E/DX2                !
 ! R15   R(6,13)                 1.5064         estimate D2E/DX2                !
 ! R16   R(6,15)                 1.43           estimate D2E/DX2                !
 ! R17   R(15,16)                1.32           estimate D2E/DX2                !
 ! R18   R(16,17)                0.96           estimate D2E/DX2                !
 ! A1    A(2,1,12)             118.713          estimate D2E/DX2                !
 ! A2    A(2,1,13)             132.3598         estimate D2E/DX2                !
 ! A3    A(12,1,13)            108.9272         estimate D2E/DX2                !
 ! A4    A(1,2,7)              118.3181         estimate D2E/DX2                !
 ! A5    A(1,2,11)             119.7045         estimate D2E/DX2                !
 ! A6    A(7,2,11)             121.9773         estimate D2E/DX2                !
 ! A7    A(4,3,8)              121.0302         estimate D2E/DX2                !
 ! A8    A(4,3,11)             121.5825         estimate D2E/DX2                !
 ! A9    A(8,3,11)             117.3873         estimate D2E/DX2                !
 ! A10   A(3,4,9)              121.9773         estimate D2E/DX2                !
 ! A11   A(3,4,12)             119.7045         estimate D2E/DX2                !
 ! A12   A(9,4,12)             118.3181         estimate D2E/DX2                !
 ! A13   A(6,5,12)             109.1737         estimate D2E/DX2                !
 ! A14   A(6,5,14)             122.4196         estimate D2E/DX2                !
 ! A15   A(12,5,14)            128.4068         estimate D2E/DX2                !
 ! A16   A(5,6,10)             111.0867         estimate D2E/DX2                !
 ! A17   A(5,6,13)             103.7983         estimate D2E/DX2                !
 ! A18   A(5,6,15)             111.0867         estimate D2E/DX2                !
 ! A19   A(10,6,13)            111.0867         estimate D2E/DX2                !
 ! A20   A(10,6,15)            108.6669         estimate D2E/DX2                !
 ! A21   A(13,6,15)            111.0867         estimate D2E/DX2                !
 ! A22   A(2,11,3)             121.5825         estimate D2E/DX2                !
 ! A23   A(1,12,4)             118.713          estimate D2E/DX2                !
 ! A24   A(1,12,5)             108.9272         estimate D2E/DX2                !
 ! A25   A(4,12,5)             132.3598         estimate D2E/DX2                !
 ! A26   A(1,13,6)             109.1737         estimate D2E/DX2                !
 ! A27   A(6,15,16)            109.5            estimate D2E/DX2                !
 ! A28   A(15,16,17)           109.5            estimate D2E/DX2                !
 ! D1    D(12,1,2,7)           180.0            estimate D2E/DX2                !
 ! D2    D(12,1,2,11)            0.0            estimate D2E/DX2                !
 ! D3    D(13,1,2,7)             0.0            estimate D2E/DX2                !
 ! D4    D(13,1,2,11)          180.0            estimate D2E/DX2                !
 ! D5    D(2,1,12,4)             0.0            estimate D2E/DX2                !
 ! D6    D(2,1,12,5)           180.0            estimate D2E/DX2                !
 ! D7    D(13,1,12,4)          180.0            estimate D2E/DX2                !
 ! D8    D(13,1,12,5)            0.0            estimate D2E/DX2                !
 ! D9    D(2,1,13,6)           180.0            estimate D2E/DX2                !
 ! D10   D(12,1,13,6)            0.0            estimate D2E/DX2                !
 ! D11   D(1,2,11,3)             0.0            estimate D2E/DX2                !
 ! D12   D(7,2,11,3)           180.0            estimate D2E/DX2                !
 ! D13   D(8,3,4,9)              0.0            estimate D2E/DX2                !
 ! D14   D(8,3,4,12)           180.0            estimate D2E/DX2                !
 ! D15   D(11,3,4,9)           180.0            estimate D2E/DX2                !
 ! D16   D(11,3,4,12)            0.0            estimate D2E/DX2                !
 ! D17   D(4,3,11,2)             0.0            estimate D2E/DX2                !
 ! D18   D(8,3,11,2)           180.0            estimate D2E/DX2                !
 ! D19   D(3,4,12,1)             0.0            estimate D2E/DX2                !
 ! D20   D(3,4,12,5)           180.0            estimate D2E/DX2                !
 ! D21   D(9,4,12,1)           180.0            estimate D2E/DX2                !
 ! D22   D(9,4,12,5)             0.0            estimate D2E/DX2                !
 ! D23   D(12,5,6,10)         -119.4563         estimate D2E/DX2                !
 ! D24   D(12,5,6,13)            0.0            estimate D2E/DX2                !
 ! D25   D(12,5,6,15)          119.4563         estimate D2E/DX2                !
 ! D26   D(14,5,6,10)           60.5437         estimate D2E/DX2                !
 ! D27   D(14,5,6,13)          180.0            estimate D2E/DX2                !
 ! D28   D(14,5,6,15)          -60.5437         estimate D2E/DX2                !
 ! D29   D(6,5,12,1)             0.0            estimate D2E/DX2                !
 ! D30   D(6,5,12,4)           180.0            estimate D2E/DX2                !
 ! D31   D(14,5,12,1)          180.0            estimate D2E/DX2                !
 ! D32   D(14,5,12,4)            0.0            estimate D2E/DX2                !
 ! D33   D(5,6,13,1)             0.0            estimate D2E/DX2                !
 ! D34   D(10,6,13,1)          119.4563         estimate D2E/DX2                !
 ! D35   D(15,6,13,1)         -119.4563         estimate D2E/DX2                !
 ! D36   D(5,6,15,16)          139.2475         estimate D2E/DX2                !
 ! D37   D(10,6,15,16)          16.7487         estimate D2E/DX2                !
 ! D38   D(13,6,15,16)        -105.7502         estimate D2E/DX2                !
 ! D39   D(6,15,16,17)         179.5685         estimate D2E/DX2                !
 --------------------------------------------------------------------------------
 Trust Radius=3.00D-01 FncErr=1.00D-07 GrdErr=1.00D-07 EigMax=2.50D+02 EigMin=1.00D-04
 Number of steps in this run=     95 maximum allowed number of steps=    102.
 GradGradGradGradGradGradGradGradGradGradGradGradGradGradGradGradGradGrad

                          Input orientation:                          
 ---------------------------------------------------------------------
 Center     Atomic      Atomic             Coordinates (Angstroms)
 Number     Number       Type             X           Y           Z
 ---------------------------------------------------------------------
      1          6           0       -1.981305    0.077001    0.000000
      2          6           0       -2.670565    1.335283    0.000000
      3          6           0       -0.517117    2.490397    0.000000
      4          6           0        0.193027    1.335283    0.000000
      5          6           0       -0.053356   -1.214537    0.000000
      6          6           0       -1.238769   -2.144048    0.000000
      7          1           0       -3.770143    1.327705    0.000000
      8          1           0       -0.010968    3.467387    0.000000
      9          1           0        1.292605    1.327705    0.000000
     10          1           0       -1.238769   -2.796634    0.909290
     11          7           0       -1.960421    2.490397    0.000000
     12          7           0       -0.496233    0.077001    0.000000
     13          7           0       -2.424182   -1.214537    0.000000
     14          8           0        1.294791   -1.691401    0.000000
     15          8           0       -1.238769   -2.977834   -1.161767
     16          8           0       -1.597341   -4.202752   -0.825016
     17          1           0       -1.603869   -4.760894   -1.606064
 ---------------------------------------------------------------------
                    Distance matrix (angstroms):
                    1          2          3          4          5
     1  C    0.000000
     2  C    1.434696   0.000000
     3  C    2.822822   2.443691   0.000000
     4  C    2.512169   2.863592   1.355947   0.000000
     5  C    2.320573   3.653952   3.733847   2.561696   0.000000
     6  C    2.341884   3.762417   4.690294   3.762417   1.506385
     7  H    2.182705   1.099604   3.454567   3.963177   4.503055
     8  H    3.921345   3.408713   1.100316   2.141841   4.682116
     9  H    3.504675   3.963177   2.151034   1.099604   2.876561
    10  H    3.104182   4.466496   5.412974   4.466496   2.176015
    11  N    2.413486   1.355947   1.443304   2.443691   4.166945
    12  N    1.485072   2.512169   2.413486   1.434696   1.365361
    13  N    1.365361   2.561696   4.166945   3.653952   2.370826
    14  O    3.722909   4.988473   4.557460   3.220978   1.430000
    15  O    3.351578   4.690705   5.636668   4.690705   2.421595
    16  O    4.375428   5.701078   6.829771   5.878427   3.463231
    17  H    5.111470   6.393798   7.506110   6.555276   4.190486
                    6          7          8          9         10
     6  C    0.000000
     7  H    4.296618   0.000000
     8  H    5.744188   4.325464   0.000000
     9  H    4.296618   5.062748   2.505502   0.000000
    10  H    1.119230   4.923904   6.447656   4.923904   0.000000
    11  N    4.690294   2.151034   2.180568   3.454567   5.412974
    12  N    2.341884   3.504675   3.424938   2.182705   3.104182
    13  N    1.506385   2.876561   5.267259   4.503055   2.176015
    14  O    2.573678   5.896487   5.321475   3.019106   2.909859
    15  O    1.430000   5.127886   6.663187   5.127886   2.078968
    16  O    2.246661   5.998973   7.875802   6.294314   2.261318
    17  H    3.092025   6.659070   8.533544   6.931091   3.212261
                   11         12         13         14         15
    11  N    0.000000
    12  N    2.822822   0.000000
    13  N    3.733847   2.320573   0.000000
    14  O    5.299419   2.516945   3.749421   0.000000
    15  O    5.636668   3.351578   2.421595   3.069778   0.000000
    16  O    6.753571   4.495484   3.208387   3.918158   1.320000
    17  H    7.435575   5.216466   3.978568   4.517018   1.873499
                   16         17
    16  O    0.000000
    17  H    0.960000   0.000000
 Symmetry turned off by external request.
 Stoichiometry    C6H5N3O3
 Framework group  C1[X(C6H5N3O3)]
 Deg. of freedom    45
 Full point group                 C1      NOp   1
 Rotational constants (GHZ):           2.0818718           0.6468316           0.5094922
 Standard basis: 6-31G(d) (6D, 7F)
   190 basis functions,   356 primitive gaussians,   190 cartesian basis functions
    43 alpha electrons       43 beta electrons
       nuclear repulsion energy       669.5230076066 Hartrees.
 NAtoms=   17 NActive=   17 NUniq=   17 SFac= 1.00D+00 NAtFMM=   60 NAOKFM=F Big=F
 Integral buffers will be    131072 words long.
 Raffenetti 1 integral format.
 Two-electron integral symmetry is turned off.
 One-electron integrals computed using PRISM.
 NBasis=   190 RedAO= T EigKep=  1.16D-03  NBF=   190
 NBsUse=   190 1.00D-06 EigRej= -1.00D+00 NBFU=   190
 ExpMin= 1.61D-01 ExpMax= 5.48D+03 ExpMxC= 8.25D+02 IAcc=3 IRadAn=         5 AccDes= 0.00D+00
 Harris functional with IExCor=  205 and IRadAn=       5 diagonalized for initial guess.
 HarFok:  IExCor=  205 AccDes= 0.00D+00 IRadAn=         5 IDoV= 1 UseB2=F ITyADJ=14
 ICtDFT=  3500011 ScaDFX=  1.000000  1.000000  1.000000  1.000000
 FoFCou: FMM=F IPFlag=           0 FMFlag=      100000 FMFlg1=           0
         NFxFlg=           0 DoJE=T BraDBF=F KetDBF=T FulRan=T
         wScrn=  0.000000 ICntrl=       500 IOpCl=  0 I1Cent=   200000004 NGrid=           0
         NMat0=    1 NMatS0=      1 NMatT0=    0 NMatD0=    1 NMtDS0=    0 NMtDT0=    0
 Symmetry not used in FoFCou.
 Keep R1 ints in memory in canonical form, NReq=168114207.
 Requested convergence on RMS density matrix=1.00D-08 within 128 cycles.
 Requested convergence on MAX density matrix=1.00D-06.
 Requested convergence on             energy=1.00D-06.
 No special actions if energy rises.
 SCF Done:  E(RHF) =  -617.784306717     A.U. after   17 cycles
            NFock= 17  Conv=0.45D-08     -V/T= 2.0048
 ExpMin= 1.61D-01 ExpMax= 5.48D+03 ExpMxC= 8.25D+02 IAcc=3 IRadAn=         5 AccDes= 0.00D+00
 HarFok:  IExCor=  205 AccDes= 0.00D+00 IRadAn=         5 IDoV=-2 UseB2=F ITyADJ=14
 ICtDFT= 12500011 ScaDFX=  1.000000  1.000000  1.000000  1.000000
 Range of M.O.s used for correlation:    13   190
 NBasis=   190 NAE=    43 NBE=    43 NFC=    12 NFV=     0
 NROrb=    178 NOA=    31 NOB=    31 NVA=   147 NVB=   147
 Fully direct method using O(ONN) memory.
 JobTyp=1 Pass  1:  I=  13 to  43 NPSUse=  4 ParTrn=T ParDer=T DoDerP=T.
 Spin components of T(2) and E(2):
     alpha-alpha T2 =       0.8388800233D-01 E2=     -0.2465318717D+00
     alpha-beta  T2 =       0.4439681401D+00 E2=     -0.1308104430D+01
     beta-beta   T2 =       0.8388800233D-01 E2=     -0.2465318717D+00
 ANorm=    0.1269544857D+01
 E2 =    -0.1801168173D+01 EUMP2 =    -0.61958547489041D+03
          IDoAtm=11111111111111111
          Differentiating once with respect to electric field.
                with respect to dipole field.
          Differentiating once with respect to nuclear coordinates.
 Keep R1 ints in memory in canonical form, NReq=168116261.
          There are     1 degrees of freedom in the 1st order CPHF.  IDoFFX=0 NUNeed=     1.
 LinEq1:  Iter=  0 NonCon=     1 RMS=6.23D-03 Max=1.50D-01 NDo=     1
 AX will form     1 AO Fock derivatives at one time.
 LinEq1:  Iter=  1 NonCon=     1 RMS=2.29D-03 Max=4.39D-02 NDo=     1
 LinEq1:  Iter=  2 NonCon=     1 RMS=1.29D-03 Max=3.42D-02 NDo=     1
 LinEq1:  Iter=  3 NonCon=     1 RMS=5.28D-04 Max=6.79D-03 NDo=     1
 LinEq1:  Iter=  4 NonCon=     1 RMS=1.83D-04 Max=3.65D-03 NDo=     1
 LinEq1:  Iter=  5 NonCon=     1 RMS=7.84D-05 Max=2.66D-03 NDo=     1
 LinEq1:  Iter=  6 NonCon=     1 RMS=2.74D-05 Max=8.25D-04 NDo=     1
 LinEq1:  Iter=  7 NonCon=     1 RMS=1.01D-05 Max=2.54D-04 NDo=     1
 LinEq1:  Iter=  8 NonCon=     1 RMS=4.53D-06 Max=1.92D-04 NDo=     1
 LinEq1:  Iter=  9 NonCon=     1 RMS=1.56D-06 Max=2.63D-05 NDo=     1
 LinEq1:  Iter= 10 NonCon=     1 RMS=9.18D-07 Max=3.91D-05 NDo=     1
 LinEq1:  Iter= 11 NonCon=     1 RMS=2.39D-07 Max=4.49D-06 NDo=     1
 LinEq1:  Iter= 12 NonCon=     1 RMS=7.39D-08 Max=1.59D-06 NDo=     1
 LinEq1:  Iter= 13 NonCon=     1 RMS=2.92D-08 Max=3.69D-07 NDo=     1
 LinEq1:  Iter= 14 NonCon=     1 RMS=1.03D-08 Max=1.69D-07 NDo=     1
 LinEq1:  Iter= 15 NonCon=     1 RMS=4.66D-09 Max=9.19D-08 NDo=     1
 LinEq1:  Iter= 16 NonCon=     1 RMS=1.38D-09 Max=1.42D-08 NDo=     1
 LinEq1:  Iter= 17 NonCon=     1 RMS=5.15D-10 Max=8.60D-09 NDo=     1
 LinEq1:  Iter= 18 NonCon=     1 RMS=2.27D-10 Max=3.27D-09 NDo=     1
 LinEq1:  Iter= 19 NonCon=     1 RMS=7.29D-11 Max=1.25D-09 NDo=     1
 LinEq1:  Iter= 20 NonCon=     0 RMS=2.79D-11 Max=4.39D-10 NDo=     1
 Linear equations converged to 1.000D-10 1.000D-09 after    20 iterations.
 End of Minotr F.D. properties file   721 does not exist.
 End of Minotr F.D. properties file   722 does not exist.
 End of Minotr F.D. properties file   788 does not exist.

 **********************************************************************

            Population analysis using the MP2 density.

 **********************************************************************

 Alpha  occ. eigenvalues --  -20.64488 -20.63066 -20.55822 -15.68976 -15.64734
 Alpha  occ. eigenvalues --  -15.59850 -11.41147 -11.38860 -11.36463 -11.34525
 Alpha  occ. eigenvalues --  -11.34286 -11.31386  -1.55249  -1.38101  -1.27516
 Alpha  occ. eigenvalues --   -1.25122  -1.23515  -1.18480  -1.06671  -1.03420
 Alpha  occ. eigenvalues --   -0.91751  -0.88121  -0.84548  -0.77455  -0.74230
 Alpha  occ. eigenvalues --   -0.72789  -0.70270  -0.69115  -0.67685  -0.64923
 Alpha  occ. eigenvalues --   -0.63758  -0.60987  -0.59879  -0.55608  -0.52412
 Alpha  occ. eigenvalues --   -0.51681  -0.48447  -0.46997  -0.46416  -0.44145
 Alpha  occ. eigenvalues --   -0.42989  -0.41280  -0.33368
 Alpha virt. eigenvalues --    0.00325   0.11951   0.13114   0.22025   0.23118
 Alpha virt. eigenvalues --    0.24384   0.26300   0.26915   0.27870   0.28539
 Alpha virt. eigenvalues --    0.30731   0.35515   0.37812   0.39792   0.40726
 Alpha virt. eigenvalues --    0.43439   0.46154   0.48288   0.51936   0.55604
 Alpha virt. eigenvalues --    0.60569   0.61529   0.67711   0.68790   0.69213
 Alpha virt. eigenvalues --    0.73546   0.74593   0.75570   0.76821   0.77236
 Alpha virt. eigenvalues --    0.80016   0.80710   0.82250   0.85077   0.85916
 Alpha virt. eigenvalues --    0.87712   0.88478   0.97338   0.99681   1.01373
 Alpha virt. eigenvalues --    1.02073   1.02976   1.04064   1.04886   1.06016
 Alpha virt. eigenvalues --    1.06934   1.07457   1.08104   1.10223   1.11757
 Alpha virt. eigenvalues --    1.12122   1.12947   1.18195   1.19602   1.23386
 Alpha virt. eigenvalues --    1.25364   1.26588   1.27487   1.30481   1.31634
 Alpha virt. eigenvalues --    1.34100   1.36989   1.37231   1.40154   1.43815
 Alpha virt. eigenvalues --    1.45037   1.52249   1.53175   1.54103   1.55650
 Alpha virt. eigenvalues --    1.59966   1.62548   1.63147   1.66473   1.67812
 Alpha virt. eigenvalues --    1.70953   1.72727   1.73666   1.78708   1.82274
 Alpha virt. eigenvalues --    1.83519   1.86807   1.93931   1.96034   2.01906
 Alpha virt. eigenvalues --    2.03263   2.03478   2.04746   2.07887   2.09219
 Alpha virt. eigenvalues --    2.10651   2.11578   2.13765   2.15616   2.19917
 Alpha virt. eigenvalues --    2.21413   2.24666   2.26679   2.29414   2.30373
 Alpha virt. eigenvalues --    2.33832   2.37370   2.38810   2.39934   2.46732
 Alpha virt. eigenvalues --    2.48378   2.50233   2.51153   2.55270   2.57511
 Alpha virt. eigenvalues --    2.58217   2.66848   2.69745   2.71867   2.75094
 Alpha virt. eigenvalues --    2.81152   2.81404   2.83901   2.86492   2.90929
 Alpha virt. eigenvalues --    2.92225   2.93978   2.94885   2.97587   3.03345
 Alpha virt. eigenvalues --    3.07431   3.09251   3.11937   3.18236   3.21920
 Alpha virt. eigenvalues --    3.25705   3.33867   3.36625   3.52995   3.65806
 Alpha virt. eigenvalues --    4.01696   4.21990   4.26490   4.42564   4.46811
 Alpha virt. eigenvalues --    4.47669   4.53691   4.57190   4.67652   4.74550
 Alpha virt. eigenvalues --    4.91674   5.06508
          Condensed to atoms (all electrons):
               1          2          3          4          5          6
     1  C    4.920645   0.309546  -0.009574  -0.025537  -0.041592  -0.061884
     2  C    0.309546   5.003276  -0.069725  -0.017622   0.001106   0.002849
     3  C   -0.009574  -0.069725   5.012672   0.469114   0.004419  -0.000230
     4  C   -0.025537  -0.017622   0.469114   5.016902  -0.023713   0.007223
     5  C   -0.041592   0.001106   0.004419  -0.023713   4.849716   0.220500
     6  C   -0.061884   0.002849  -0.000230   0.007223   0.220500   5.095389
     7  H   -0.053923   0.370438   0.003140  -0.000452  -0.000047  -0.000107
     8  H    0.000046   0.002634   0.381556  -0.048177  -0.000056   0.000001
     9  H    0.001774  -0.000120  -0.027308   0.353197   0.001034   0.000163
    10  H    0.003150  -0.000034   0.000003  -0.000145  -0.030373   0.357643
    11  N   -0.019124   0.417231   0.311609  -0.033767  -0.000168  -0.000255
    12  N    0.172146  -0.025092  -0.033207   0.215156   0.142328  -0.091000
    13  N    0.380440  -0.037417   0.000103   0.004983  -0.048934   0.207522
    14  O    0.000960  -0.000043   0.000273   0.005527   0.446403  -0.053076
    15  O    0.003592  -0.000005   0.000001  -0.000040  -0.019235   0.156208
    16  O   -0.000059   0.000000  -0.000000   0.000001   0.001797  -0.046262
    17  H    0.000000  -0.000000   0.000000  -0.000000  -0.000245   0.004708
               7          8          9         10         11         12
     1  C   -0.053923   0.000046   0.001774   0.003150  -0.019124   0.172146
     2  C    0.370438   0.002634  -0.000120  -0.000034   0.417231  -0.025092
     3  C    0.003140   0.381556  -0.027308   0.000003   0.311609  -0.033207
     4  C   -0.000452  -0.048177   0.353197  -0.000145  -0.033767   0.215156
     5  C   -0.000047  -0.000056   0.001034  -0.030373  -0.000168   0.142328
     6  C   -0.000107   0.000001   0.000163   0.357643  -0.000255  -0.091000
     7  H    0.467427  -0.000029   0.000014   0.000001  -0.034952   0.003198
     8  H   -0.000029   0.476999   0.000329  -0.000000  -0.033621   0.002354
     9  H    0.000014   0.000329   0.459497  -0.000001   0.003392  -0.037266
    10  H    0.000001  -0.000000  -0.000001   0.482965   0.000003   0.001700
    11  N   -0.034952  -0.033621   0.003392   0.000003   6.828545  -0.031994
    12  N    0.003198   0.002354  -0.037266   0.001700  -0.031994   7.411843
    13  N    0.004136   0.000002  -0.000117  -0.036596   0.003932  -0.097684
    14  O    0.000000   0.000000   0.003505  -0.000460  -0.000001  -0.062809
    15  O    0.000001  -0.000000  -0.000001  -0.029205   0.000000   0.000360
    16  O   -0.000000   0.000000   0.000000   0.007332  -0.000000  -0.000027
    17  H   -0.000000  -0.000000  -0.000000  -0.000125   0.000000   0.000005
              13         14         15         16         17
     1  C    0.380440   0.000960   0.003592  -0.000059   0.000000
     2  C   -0.037417  -0.000043  -0.000005   0.000000  -0.000000
     3  C    0.000103   0.000273   0.000001  -0.000000   0.000000
     4  C    0.004983   0.005527  -0.000040   0.000001  -0.000000
     5  C   -0.048934   0.446403  -0.019235   0.001797  -0.000245
     6  C    0.207522  -0.053076   0.156208  -0.046262   0.004708
     7  H    0.004136   0.000000   0.000001  -0.000000  -0.000000
     8  H    0.000002   0.000000  -0.000000   0.000000  -0.000000
     9  H   -0.000117   0.003505  -0.000001   0.000000  -0.000000
    10  H   -0.036596  -0.000460  -0.029205   0.007332  -0.000125
    11  N    0.003932  -0.000001   0.000000  -0.000000   0.000000
    12  N   -0.097684  -0.062809   0.000360  -0.000027   0.000005
    13  N    7.104462   0.002719  -0.044469   0.002382  -0.000143
    14  O    0.002719   8.109079   0.000353  -0.000065   0.000008
    15  O   -0.044469   0.000353   8.249887  -0.003976  -0.022495
    16  O    0.002382  -0.000065  -0.003976   8.224515   0.240689
    17  H   -0.000143   0.000008  -0.022495   0.240689   0.321477
 Mulliken charges:
               1
     1  C    0.419393
     2  C    0.042978
     3  C   -0.042845
     4  C    0.077350
     5  C    0.497062
     6  C    0.200608
     7  H    0.241154
     8  H    0.217961
     9  H    0.241908
    10  H    0.244143
    11  N   -0.410828
    12  N   -0.570010
    13  N   -0.445320
    14  O   -0.452373
    15  O   -0.290978
    16  O   -0.426324
    17  H    0.456122
 Sum of Mulliken charges =  -0.00000
 Mulliken charges with hydrogens summed into heavy atoms:
               1
     1  C    0.419393
     2  C    0.284133
     3  C    0.175116
     4  C    0.319258
     5  C    0.497062
     6  C    0.444751
    11  N   -0.410828
    12  N   -0.570010
    13  N   -0.445320
    14  O   -0.452373
    15  O   -0.290978
    16  O    0.029797
 Electronic spatial extent (au):  <R**2>=           2515.6563
 Charge=             -0.0000 electrons
 Dipole moment (field-independent basis, Debye):
    X=             -0.2676    Y=              1.3383    Z=             -0.2253  Tot=              1.3832
 Quadrupole moment (field-independent basis, Debye-Ang):
   XX=            -72.3909   YY=            -61.8008   ZZ=            -65.2794
   XY=              6.6574   XZ=              0.9645   YZ=              4.6038
 Traceless Quadrupole moment (field-independent basis, Debye-Ang):
   XX=             -5.9005   YY=              4.6896   ZZ=              1.2110
   XY=              6.6574   XZ=              0.9645   YZ=              4.6038
 Octapole moment (field-independent basis, Debye-Ang**2):
  XXX=            215.7933  YYY=             25.1304  ZZZ=             27.4137  XYY=             72.3116
  XXY=             46.6071  XXZ=              8.6976  XZZ=             67.0167  YZZ=             10.4742
  YYZ=            -24.0421  XYZ=             -9.3162
 Hexadecapole moment (field-independent basis, Debye-Ang**3):
 XXXX=          -1044.9349 YYYY=          -1543.7899 ZZZZ=           -125.7806 XXXY=           -136.8688
 XXXZ=            -42.2662 YYYX=            116.5479 YYYZ=             92.3516 ZZZX=            -36.6195
 ZZZY=            -86.3964 XXYY=           -540.8212 XXZZ=           -195.7464 YYZZ=           -254.0453
 XXYZ=            -23.0174 YYXZ=             46.2976 ZZXY=              3.8690
 N-N= 6.695230076066D+02 E-N=-2.789427167628D+03  KE= 6.170417748705D+02
 Merz-Kollman atomic radii used.

 **********************************************************************

          Electrostatic Properties Using The MP2 Density

 **********************************************************************

       Atomic Center    1 is at  -1.981305  0.077001  0.000000
       Atomic Center    2 is at  -2.670565  1.335283  0.000000
       Atomic Center    3 is at  -0.517117  2.490397  0.000000
       Atomic Center    4 is at   0.193027  1.335283  0.000000
       Atomic Center    5 is at  -0.053356 -1.214537  0.000000
       Atomic Center    6 is at  -1.238769 -2.144048  0.000000
       Atomic Center    7 is at  -3.770143  1.327705  0.000000
       Atomic Center    8 is at  -0.010968  3.467387  0.000000
       Atomic Center    9 is at   1.292605  1.327705  0.000000
       Atomic Center   10 is at  -1.238769 -2.796634  0.909290
       Atomic Center   11 is at  -1.960421  2.490397  0.000000
       Atomic Center   12 is at  -0.496233  0.077001  0.000000
       Atomic Center   13 is at  -2.424182 -1.214537  0.000000
       Atomic Center   14 is at   1.294791 -1.691401  0.000000
       Atomic Center   15 is at  -1.238769 -2.977834 -1.161767
       Atomic Center   16 is at  -1.597341 -4.202752 -0.825016
       Atomic Center   17 is at  -1.603869 -4.760894 -1.606064
    1001 points will be used for fitting atomic charges
 Fitting point charges to electrostatic potential
 The dipole moment will be constrained to the correct value
 Charges from ESP fit, RMS=   0.00218 RRMS=   0.12684:
 ESP charges:
               1
     1  C    0.038942
     2  C    0.383871
     3  C    0.374562
     4  C   -0.611561
     5  C   -0.219293
     6  C    0.673876
     7  H    0.090632
     8  H    0.087269
     9  H    0.266722
    10  H    0.079896
    11  N   -0.613205
    12  N    0.602691
    13  N   -0.603973
    14  O   -0.309065
    15  O   -0.198242
    16  O   -0.536609
    17  H    0.493488
 Sum of ESP charges =   0.00000
 ESP charges with hydrogens summed into heavy atoms:
               1
     1  C    0.038942
     2  C    0.474503
     3  C    0.461832
     4  C   -0.344839
     5  C   -0.219293
     6  C    0.753771
    11  N   -0.613205
    12  N    0.602691
    13  N   -0.603973
    14  O   -0.309065
    15  O   -0.198242
    16  O   -0.043121
 Charge=   0.00000 Dipole=    -0.2676     1.3383    -0.2253 Tot=     1.3832
 -----------------------------------------------------------------

              Electrostatic Properties (Atomic Units)

 -----------------------------------------------------------------
    Center     Electric         -------- Electric Field --------
               Potential          X             Y             Z
 -----------------------------------------------------------------
    1 Atom    -14.634923
    2 Atom    -14.657055
    3 Atom    -14.683210
    4 Atom    -14.664533
    5 Atom    -14.607554
    6 Atom    -14.631549
    7 Atom     -1.032968
    8 Atom     -1.043553
    9 Atom     -1.030383
   10 Atom     -1.043237
   11 Atom    -18.308300
   12 Atom    -18.232981
   13 Atom    -18.340050
   14 Atom    -22.278090
   15 Atom    -22.218230
   16 Atom    -22.234733
   17 Atom     -0.940309
 -----------------------------------------------------------------
 Calling FoFJK, ICntrl=  10002127 FMM=F ISym2X=0 I1Cent= 0 IOpClX= 0 NMat=1 NMatS=1 NMatT=0.
 -------------------------------------------------------------------
 Center     Atomic                   Forces (Hartrees/Bohr)
 Number     Number              X              Y              Z
 -------------------------------------------------------------------
      1        6           0.031127411   -0.100311248    0.000699097
      2        6           0.040536292    0.033552927   -0.000135389
      3        6          -0.036646881   -0.014540827   -0.000224061
      4        6           0.007219723   -0.026922968   -0.000396017
      5        6           0.175877150   -0.066515143   -0.005794014
      6        6          -0.022970108    0.008377391   -0.000038374
      7        1           0.009050963    0.006160177   -0.000007409
      8        1          -0.009346505   -0.009384764    0.000100223
      9        1          -0.009787708   -0.007321977    0.000018460
     10        1          -0.002758769    0.009647906   -0.011487540
     11        7          -0.008417047   -0.018845941   -0.000079649
     12        7          -0.016378718    0.053616967    0.001935001
     13        7           0.000081606    0.043996814    0.001372045
     14        8          -0.162228780    0.068301493    0.000750339
     15        8           0.038342218    0.115354948   -0.036329883
     16        8          -0.039290253   -0.103033737    0.071225038
     17        1           0.005589405    0.007867982   -0.021607868
 -------------------------------------------------------------------
 Cartesian Forces:  Max     0.175877150 RMS     0.049146018

 GradGradGradGradGradGradGradGradGradGradGradGradGradGradGradGradGradGrad
 Berny optimization.
 FormGI is forming the generalized inverse of G from B-inverse, IUseBI=4.
 Internal  Forces:  Max     0.175719430 RMS     0.027073530
 Search for a local minimum.
 Step number   1 out of a maximum of   95
 All quantities printed in internal units (Hartrees-Bohrs-Radians)
 Mixed Optimization -- RFO/linear search
 Second derivative matrix not updated -- first step.
 ITU=  0
     Eigenvalues ---    0.00752   0.01152   0.01293   0.01295   0.01380
     Eigenvalues ---    0.01581   0.01627   0.01866   0.01944   0.02014
     Eigenvalues ---    0.02300   0.02353   0.06679   0.07636   0.08857
     Eigenvalues ---    0.15634   0.16000   0.16000   0.16000   0.16000
     Eigenvalues ---    0.22340   0.22613   0.23308   0.24599   0.25000
     Eigenvalues ---    0.25000   0.25000   0.29944   0.31246   0.31642
     Eigenvalues ---    0.32631   0.33647   0.33726   0.33726   0.38153
     Eigenvalues ---    0.38588   0.40102   0.40989   0.40989   0.48319
     Eigenvalues ---    0.51341   0.51610   0.52958   0.55473   0.61931
 RFO step:  Lambda=-1.17283087D-01 EMin= 7.51500078D-03
 Linear search not attempted -- first point.
 Maximum step size (   0.300) exceeded in Quadratic search.
    -- Step size scaled by   0.622
 Iteration  1 RMS(Cart)=  0.03965345 RMS(Int)=  0.00100388
 Iteration  2 RMS(Cart)=  0.00116335 RMS(Int)=  0.00010909
 Iteration  3 RMS(Cart)=  0.00000112 RMS(Int)=  0.00010908
 Iteration  4 RMS(Cart)=  0.00000000 RMS(Int)=  0.00010908
 Variable       Old X    -DE/DX   Delta X   Delta X   Delta X     New X
                                 (Linear)    (Quad)   (Total)
    R1        2.71118   0.00286   0.00000   0.00297   0.00302   2.71420
    R2        2.80638  -0.03188   0.00000  -0.04388  -0.04350   2.76288
    R3        2.58016  -0.06183   0.00000  -0.06229  -0.06211   2.51805
    R4        2.07795  -0.00909   0.00000  -0.01244  -0.01244   2.06551
    R5        2.56237  -0.05052   0.00000  -0.04876  -0.04881   2.51356
    R6        2.56237  -0.00248   0.00000  -0.00204  -0.00209   2.56028
    R7        2.07930  -0.01263   0.00000  -0.01731  -0.01731   2.06198
    R8        2.72745  -0.03460   0.00000  -0.04290  -0.04299   2.68445
    R9        2.07795  -0.00974   0.00000  -0.01332  -0.01332   2.06463
   R10        2.71118  -0.04544   0.00000  -0.05328  -0.05324   2.65795
   R11        2.84665   0.00279   0.00000   0.00647   0.00619   2.85284
   R12        2.58016  -0.01624   0.00000  -0.01459  -0.01457   2.56559
   R13        2.70231  -0.17572   0.00000  -0.20727  -0.20727   2.49503
   R14        2.11504  -0.01496   0.00000  -0.02145  -0.02145   2.09359
   R15        2.84665  -0.01906   0.00000  -0.02779  -0.02796   2.81869
   R16        2.70231  -0.02257   0.00000  -0.02662  -0.02662   2.67569
   R17        2.49444   0.11012   0.00000   0.09297   0.09297   2.58741
   R18        1.81414   0.01297   0.00000   0.01200   0.01200   1.82614
    A1        2.07193  -0.01850   0.00000  -0.02935  -0.02936   2.04257
    A2        2.31011  -0.01609   0.00000  -0.02463  -0.02495   2.28517
    A3        1.90114   0.03459   0.00000   0.05398   0.05431   1.95544
    A4        2.06504  -0.00316   0.00000  -0.00179  -0.00182   2.06322
    A5        2.08924   0.01898   0.00000   0.03200   0.03206   2.12130
    A6        2.12891  -0.01583   0.00000  -0.03021  -0.03024   2.09867
    A7        2.11238  -0.00222   0.00000  -0.00200  -0.00196   2.11041
    A8        2.12201   0.01271   0.00000   0.02257   0.02250   2.14451
    A9        2.04880  -0.01050   0.00000  -0.02057  -0.02053   2.02826
   A10        2.12891   0.01287   0.00000   0.02599   0.02596   2.15487
   A11        2.08924  -0.01038   0.00000  -0.01755  -0.01749   2.07175
   A12        2.06504  -0.00249   0.00000  -0.00844  -0.00847   2.05657
   A13        1.90544  -0.01851   0.00000  -0.02679  -0.02701   1.87843
   A14        2.13662   0.02316   0.00000   0.03694   0.03705   2.17367
   A15        2.24112  -0.00465   0.00000  -0.01015  -0.01005   2.23107
   A16        1.93883   0.00005   0.00000   0.00174   0.00185   1.94068
   A17        1.81162   0.01175   0.00000   0.02624   0.02590   1.83752
   A18        1.93883  -0.00684   0.00000  -0.01336  -0.01326   1.92557
   A19        1.93883  -0.00522   0.00000  -0.01295  -0.01296   1.92587
   A20        1.89660   0.00260   0.00000   0.00259   0.00251   1.89910
   A21        1.93883  -0.00233   0.00000  -0.00403  -0.00382   1.93500
   A22        2.12201  -0.01500   0.00000  -0.02978  -0.02989   2.09213
   A23        2.07193   0.01219   0.00000   0.02212   0.02218   2.09411
   A24        1.90114  -0.00794   0.00000  -0.01378  -0.01359   1.88755
   A25        2.31011  -0.00425   0.00000  -0.00834  -0.00859   2.30152
   A26        1.90544  -0.01988   0.00000  -0.03966  -0.03961   1.86583
   A27        1.91114  -0.02120   0.00000  -0.03589  -0.03589   1.87524
   A28        1.91114  -0.03591   0.00000  -0.08054  -0.08054   1.83060
    D1        3.14159  -0.00023   0.00000  -0.00060  -0.00058   3.14101
    D2        0.00000  -0.00014   0.00000  -0.00036  -0.00035  -0.00035
    D3        0.00000   0.00040   0.00000   0.00098   0.00095   0.00095
    D4        3.14159   0.00048   0.00000   0.00122   0.00118  -3.14041
    D5        0.00000   0.00010   0.00000   0.00032   0.00031   0.00031
    D6        3.14159   0.00020   0.00000   0.00096   0.00097  -3.14062
    D7        3.14159  -0.00039   0.00000  -0.00091  -0.00094   3.14065
    D8        0.00000  -0.00028   0.00000  -0.00027  -0.00028  -0.00028
    D9        3.14159   0.00043   0.00000   0.00059   0.00057  -3.14102
   D10        0.00000   0.00100   0.00000   0.00205   0.00205   0.00205
   D11        0.00000   0.00008   0.00000   0.00017   0.00017   0.00017
   D12        3.14159   0.00018   0.00000   0.00041   0.00040  -3.14119
   D13        0.00000  -0.00007   0.00000  -0.00034  -0.00035  -0.00035
   D14        3.14159  -0.00008   0.00000  -0.00025  -0.00025   3.14135
   D15        3.14159  -0.00005   0.00000  -0.00021  -0.00022   3.14137
   D16        0.00000  -0.00005   0.00000  -0.00012  -0.00012  -0.00012
   D17        0.00000   0.00002   0.00000   0.00008   0.00009   0.00009
   D18        3.14159   0.00004   0.00000   0.00021   0.00020  -3.14139
   D19        0.00000  -0.00001   0.00000  -0.00008  -0.00008  -0.00008
   D20        3.14159  -0.00014   0.00000  -0.00090  -0.00093   3.14066
   D21        3.14159  -0.00001   0.00000   0.00001   0.00001  -3.14158
   D22        0.00000  -0.00014   0.00000  -0.00081  -0.00083  -0.00083
   D23       -2.08491   0.00043   0.00000   0.00192   0.00192  -2.08298
   D24        0.00000   0.00111   0.00000   0.00274   0.00275   0.00275
   D25        2.08491   0.00177   0.00000   0.00655   0.00649   2.09140
   D26        1.05669  -0.00072   0.00000  -0.00216  -0.00219   1.05450
   D27        3.14159  -0.00003   0.00000  -0.00134  -0.00136   3.14024
   D28       -1.05669   0.00062   0.00000   0.00248   0.00238  -1.05431
   D29        0.00000  -0.00056   0.00000  -0.00163  -0.00161  -0.00161
   D30        3.14159  -0.00044   0.00000  -0.00087  -0.00084   3.14075
   D31        3.14159   0.00067   0.00000   0.00276   0.00268  -3.13891
   D32        0.00000   0.00079   0.00000   0.00352   0.00345   0.00345
   D33        0.00000  -0.00129   0.00000  -0.00291  -0.00289  -0.00289
   D34        2.08491   0.00299   0.00000   0.00794   0.00776   2.09266
   D35       -2.08491   0.00114   0.00000  -0.00036  -0.00035  -2.08526
   D36        2.43033  -0.00246   0.00000  -0.00223  -0.00208   2.42825
   D37        0.29232   0.00016   0.00000   0.00247   0.00246   0.29478
   D38       -1.84569   0.00645   0.00000   0.01954   0.01941  -1.82628
   D39        3.13406   0.00004   0.00000   0.00016   0.00016   3.13422
         Item               Value     Threshold  Converged?
 Maximum Force            0.175719     0.000015     NO 
 RMS     Force            0.027074     0.000010     NO 
 Maximum Displacement     0.136455     0.000060     NO 
 RMS     Displacement     0.040244     0.000040     NO 
 Predicted change in Energy=-5.556719D-02
 GradGradGradGradGradGradGradGradGradGradGradGradGradGradGradGradGradGrad

                          Input orientation:                          
 ---------------------------------------------------------------------
 Center     Atomic      Atomic             Coordinates (Angstroms)
 Number     Number       Type             X           Y           Z
 ---------------------------------------------------------------------
      1          6           0       -1.944899    0.041980   -0.005668
      2          6           0       -2.627136    1.305897   -0.003235
      3          6           0       -0.539543    2.450963    0.003432
      4          6           0        0.191245    1.310114    0.001138
      5          6           0       -0.030558   -1.204083   -0.007568
      6          6           0       -1.234589   -2.114785   -0.010262
      7          1           0       -3.720152    1.303126   -0.005348
      8          1           0       -0.053694    3.427977    0.007272
      9          1           0        1.283686    1.294424    0.002614
     10          1           0       -1.248512   -2.762951    0.888119
     11          7           0       -1.960082    2.456653    0.001202
     12          7           0       -0.483239    0.075869   -0.003511
     13          7           0       -2.416124   -1.204397   -0.011231
     14          8           0        1.222582   -1.619850   -0.004555
     15          8           0       -1.228614   -2.934610   -1.164673
     16          8           0       -1.621144   -4.188543   -0.779614
     17          1           0       -1.610616   -4.712267   -1.591670
 ---------------------------------------------------------------------
                    Distance matrix (angstroms):
                    1          2          3          4          5
     1  C    0.000000
     2  C    1.436293   0.000000
     3  C    2.788961   2.381021   0.000000
     4  C    2.484215   2.818388   1.354840   0.000000
     5  C    2.284158   3.611403   3.690331   2.523977   0.000000
     6  C    2.270726   3.693278   4.618369   3.709861   1.509660
     7  H    2.177616   1.093021   3.381401   3.911408   4.460852
     8  H    3.878375   3.335556   1.091155   2.131988   4.632141
     9  H    3.463011   3.910844   2.159109   1.092555   2.823097
    10  H    3.025136   4.387555   5.335748   4.410158   2.171574
    11  N    2.414730   1.330120   1.420552   2.437778   4.138131
    12  N    1.462054   2.471692   2.375771   1.406525   1.357650
    13  N    1.332494   2.519160   4.108944   3.622332   2.385568
    14  O    3.576957   4.835321   4.435839   3.106184   1.320315
    15  O    3.273598   4.613751   5.553709   4.625235   2.401864
    16  O    4.312904   5.639473   6.772449   5.842051   3.468864
    17  H    5.022949   6.306721   7.416428   6.484814   4.160927
                    6          7          8          9         10
     6  C    0.000000
     7  H    4.226129   0.000000
     8  H    5.667188   4.237695   0.000000
     9  H    4.238464   5.003852   2.518066   0.000000
    10  H    1.107881   4.841515   6.366401   4.863993   0.000000
    11  N    4.628662   2.104402   2.139585   3.445695   5.342024
    12  N    2.315931   3.461758   3.379534   2.146378   3.072384
    13  N    1.491587   2.826339   5.200029   4.464627   2.145050
    14  O    2.506528   5.742335   5.206686   2.914923   2.865283
    15  O    1.415914   5.050762   6.575439   5.055585   2.060052
    16  O    2.245395   5.929903   7.815847   6.254026   2.225421
    17  H    3.064173   6.568981   8.440627   6.855586   3.174949
                   11         12         13         14         15
    11  N    0.000000
    12  N    2.801646   0.000000
    13  N    3.689364   2.318444   0.000000
    14  O    5.171776   2.405263   3.662353   0.000000
    15  O    5.564173   3.311625   2.394628   3.013773   0.000000
    16  O    6.699491   4.481336   3.182379   3.909690   1.369196
    17  H    7.352059   5.169088   3.930876   4.484304   1.867703
                   16         17
    16  O    0.000000
    17  H    0.966350   0.000000
 Symmetry turned off by external request.
 Stoichiometry    C6H5N3O3
 Framework group  C1[X(C6H5N3O3)]
 Deg. of freedom    45
 Full point group                 C1      NOp   1
 Rotational constants (GHZ):           2.1535556           0.6637948           0.5237364
 Standard basis: 6-31G(d) (6D, 7F)
   190 basis functions,   356 primitive gaussians,   190 cartesian basis functions
    43 alpha electrons       43 beta electrons
       nuclear repulsion energy       678.3587377376 Hartrees.
 NAtoms=   17 NActive=   17 NUniq=   17 SFac= 1.00D+00 NAtFMM=   60 NAOKFM=F Big=F
 Integral buffers will be    131072 words long.
 Raffenetti 1 integral format.
 Two-electron integral symmetry is turned off.
 One-electron integrals computed using PRISM.
 NBasis=   190 RedAO= T EigKep=  1.06D-03  NBF=   190
 NBsUse=   190 1.00D-06 EigRej= -1.00D+00 NBFU=   190
 Initial guess from the checkpoint file:  "frg_mp2.chk"
 B after Tr=    -0.001412    0.008387   -0.002905
         Rot=    0.999999    0.000641   -0.000779   -0.000294 Ang=   0.12 deg.
 ExpMin= 1.61D-01 ExpMax= 5.48D+03 ExpMxC= 8.25D+02 IAcc=2 IRadAn=         4 AccDes= 0.00D+00
 Harris functional with IExCor=  205 and IRadAn=       4 diagonalized for initial guess.
 HarFok:  IExCor=  205 AccDes= 0.00D+00 IRadAn=         4 IDoV= 1 UseB2=F ITyADJ=14
 ICtDFT=  3500011 ScaDFX=  1.000000  1.000000  1.000000  1.000000
 FoFCou: FMM=F IPFlag=           0 FMFlag=      100000 FMFlg1=           0
         NFxFlg=           0 DoJE=T BraDBF=F KetDBF=T FulRan=T
         wScrn=  0.000000 ICntrl=       500 IOpCl=  0 I1Cent=   200000004 NGrid=           0
         NMat0=    1 NMatS0=      1 NMatT0=    0 NMatD0=    1 NMtDS0=    0 NMtDT0=    0
 Symmetry not used in FoFCou.
 Keep R1 ints in memory in canonical form, NReq=168114207.
 Requested convergence on RMS density matrix=1.00D-08 within 128 cycles.
 Requested convergence on MAX density matrix=1.00D-06.
 Requested convergence on             energy=1.00D-06.
 No special actions if energy rises.
 SCF Done:  E(RHF) =  -617.858033020     A.U. after   14 cycles
            NFock= 14  Conv=0.99D-08     -V/T= 2.0039
 ExpMin= 1.61D-01 ExpMax= 5.48D+03 ExpMxC= 8.25D+02 IAcc=3 IRadAn=         5 AccDes= 0.00D+00
 HarFok:  IExCor=  205 AccDes= 0.00D+00 IRadAn=         5 IDoV=-2 UseB2=F ITyADJ=14
 ICtDFT= 12500011 ScaDFX=  1.000000  1.000000  1.000000  1.000000
 Range of M.O.s used for correlation:    13   190
 NBasis=   190 NAE=    43 NBE=    43 NFC=    12 NFV=     0
 NROrb=    178 NOA=    31 NOB=    31 NVA=   147 NVB=   147
 Fully direct method using O(ONN) memory.
 JobTyp=1 Pass  1:  I=  13 to  43 NPSUse=  4 ParTrn=T ParDer=T DoDerP=T.
 Spin components of T(2) and E(2):
     alpha-alpha T2 =       0.8145954252D-01 E2=     -0.2448168024D+00
     alpha-beta  T2 =       0.4304602590D+00 E2=     -0.1296845715D+01
     beta-beta   T2 =       0.8145954252D-01 E2=     -0.2448168024D+00
 ANorm=    0.1262291307D+01
 E2 =    -0.1786479320D+01 EUMP2 =    -0.61964451233997D+03
          IDoAtm=11111111111111111
          Differentiating once with respect to electric field.
                with respect to dipole field.
          Differentiating once with respect to nuclear coordinates.
 Keep R1 ints in memory in canonical form, NReq=168116261.
          There are     1 degrees of freedom in the 1st order CPHF.  IDoFFX=0 NUNeed=     1.
 LinEq1:  Iter=  0 NonCon=     1 RMS=5.55D-03 Max=1.16D-01 NDo=     1
 AX will form     1 AO Fock derivatives at one time.
 LinEq1:  Iter=  1 NonCon=     1 RMS=1.90D-03 Max=3.08D-02 NDo=     1
 LinEq1:  Iter=  2 NonCon=     1 RMS=9.11D-04 Max=2.06D-02 NDo=     1
 LinEq1:  Iter=  3 NonCon=     1 RMS=3.85D-04 Max=8.22D-03 NDo=     1
 LinEq1:  Iter=  4 NonCon=     1 RMS=1.22D-04 Max=2.58D-03 NDo=     1
 LinEq1:  Iter=  5 NonCon=     1 RMS=5.07D-05 Max=1.24D-03 NDo=     1
 LinEq1:  Iter=  6 NonCon=     1 RMS=1.87D-05 Max=5.64D-04 NDo=     1
 LinEq1:  Iter=  7 NonCon=     1 RMS=6.68D-06 Max=1.37D-04 NDo=     1
 LinEq1:  Iter=  8 NonCon=     1 RMS=2.46D-06 Max=6.68D-05 NDo=     1
 LinEq1:  Iter=  9 NonCon=     1 RMS=1.02D-06 Max=3.91D-05 NDo=     1
 LinEq1:  Iter= 10 NonCon=     1 RMS=4.71D-07 Max=1.11D-05 NDo=     1
 LinEq1:  Iter= 11 NonCon=     1 RMS=1.54D-07 Max=3.14D-06 NDo=     1
 LinEq1:  Iter= 12 NonCon=     1 RMS=5.23D-08 Max=8.01D-07 NDo=     1
 LinEq1:  Iter= 13 NonCon=     1 RMS=2.01D-08 Max=2.55D-07 NDo=     1
 LinEq1:  Iter= 14 NonCon=     1 RMS=6.24D-09 Max=6.37D-08 NDo=     1
 LinEq1:  Iter= 15 NonCon=     1 RMS=2.38D-09 Max=3.41D-08 NDo=     1
 LinEq1:  Iter= 16 NonCon=     1 RMS=6.65D-10 Max=8.02D-09 NDo=     1
 LinEq1:  Iter= 17 NonCon=     1 RMS=1.83D-10 Max=2.70D-09 NDo=     1
 LinEq1:  Iter= 18 NonCon=     1 RMS=7.30D-11 Max=1.07D-09 NDo=     1
 LinEq1:  Iter= 19 NonCon=     0 RMS=2.61D-11 Max=3.84D-10 NDo=     1
 Linear equations converged to 1.000D-10 1.000D-09 after    19 iterations.
 End of Minotr F.D. properties file   721 does not exist.
 End of Minotr F.D. properties file   722 does not exist.
 End of Minotr F.D. properties file   788 does not exist.
 Calling FoFJK, ICntrl=  10002127 FMM=F ISym2X=0 I1Cent= 0 IOpClX= 0 NMat=1 NMatS=1 NMatT=0.
 -------------------------------------------------------------------
 Center     Atomic                   Forces (Hartrees/Bohr)
 Number     Number              X              Y              Z
 -------------------------------------------------------------------
      1        6           0.021845104   -0.061288482    0.000575130
      2        6           0.019894360    0.021533417    0.000001215
      3        6          -0.021802086   -0.005169702   -0.000257852
      4        6           0.005658248   -0.015925816   -0.000535246
      5        6           0.126520665   -0.055250847   -0.004256922
      6        6          -0.025079511    0.005554524    0.000405589
      7        1           0.003934633    0.003038207    0.000023700
      8        1          -0.004058325   -0.004530134    0.000087070
      9        1          -0.005314068   -0.004484366    0.000007416
     10        1          -0.000318976    0.005610497   -0.005661221
     11        7          -0.002098460   -0.010857227   -0.000138397
     12        7          -0.024799743    0.044344002    0.002118889
     13        7           0.003050741    0.026349276    0.001681837
     14        8          -0.102365934    0.042361848    0.000269044
     15        8           0.026655898    0.065116477   -0.023964794
     16        8          -0.025183460   -0.061056131    0.042550888
     17        1           0.003460911    0.004654457   -0.012906346
 -------------------------------------------------------------------
 Cartesian Forces:  Max     0.126520665 RMS     0.032351974

 GradGradGradGradGradGradGradGradGradGradGradGradGradGradGradGradGradGrad
 Berny optimization.
 Using GEDIIS/GDIIS optimizer.
 FormGI is forming the generalized inverse of G from B-inverse, IUseBI=4.
 Internal  Forces:  Max     0.110496904 RMS     0.016418292
 Search for a local minimum.
 Step number   2 out of a maximum of   95
 All quantities printed in internal units (Hartrees-Bohrs-Radians)
 Mixed Optimization -- RFO/linear search
 Update second derivatives using D2CorX and points    1    2
 DE= -5.90D-02 DEPred=-5.56D-02 R= 1.06D+00
 TightC=F SS=  1.41D+00  RLast= 3.01D-01 DXNew= 5.0454D-01 9.0278D-01
 Trust test= 1.06D+00 RLast= 3.01D-01 DXMaxT set to 5.05D-01
 ITU=  1  0
 Use linear search instead of GDIIS.
     Eigenvalues ---    0.00749   0.01139   0.01282   0.01295   0.01366
     Eigenvalues ---    0.01572   0.01633   0.01861   0.01950   0.02025
     Eigenvalues ---    0.02304   0.02353   0.06594   0.07644   0.08891
     Eigenvalues ---    0.15813   0.15992   0.16000   0.16000   0.16323
     Eigenvalues ---    0.22207   0.22670   0.23518   0.24346   0.24811
     Eigenvalues ---    0.25000   0.25612   0.28252   0.30679   0.31684
     Eigenvalues ---    0.32586   0.33672   0.33708   0.33799   0.34456
     Eigenvalues ---    0.38276   0.38586   0.40399   0.41263   0.47968
     Eigenvalues ---    0.51450   0.52495   0.55135   0.55436   0.60211
 RFO step:  Lambda=-6.90184801D-03 EMin= 7.49083538D-03
 Quartic linear search produced a step of  1.12094.
 Iteration  1 RMS(Cart)=  0.03490186 RMS(Int)=  0.00951716
 Iteration  2 RMS(Cart)=  0.00916997 RMS(Int)=  0.00029019
 Iteration  3 RMS(Cart)=  0.00002494 RMS(Int)=  0.00028968
 Iteration  4 RMS(Cart)=  0.00000001 RMS(Int)=  0.00028968
 Variable       Old X    -DE/DX   Delta X   Delta X   Delta X     New X
                                 (Linear)    (Quad)   (Total)
    R1        2.71420   0.00571   0.00338   0.02089   0.02432   2.73853
    R2        2.76288  -0.02194  -0.04876  -0.02364  -0.07153   2.69135
    R3        2.51805  -0.03514  -0.06962  -0.00576  -0.07514   2.44291
    R4        2.06551  -0.00394  -0.01394   0.00830  -0.00565   2.05986
    R5        2.51356  -0.02564  -0.05471   0.00997  -0.04491   2.46865
    R6        2.56028   0.00032  -0.00234   0.00681   0.00439   2.56467
    R7        2.06198  -0.00586  -0.01941   0.00918  -0.01023   2.05176
    R8        2.68445  -0.01968  -0.04819   0.00178  -0.04665   2.63781
    R9        2.06463  -0.00525  -0.01493   0.00255  -0.01238   2.05225
   R10        2.65795  -0.02382  -0.05967   0.01002  -0.04948   2.60847
   R11        2.85284   0.00777   0.00694   0.04377   0.05020   2.90304
   R12        2.56559   0.00732  -0.01633   0.06822   0.05211   2.61769
   R13        2.49503  -0.11050  -0.23234  -0.05281  -0.28515   2.20988
   R14        2.09359  -0.00787  -0.02404   0.00586  -0.01818   2.07541
   R15        2.81869  -0.01086  -0.03134   0.00057  -0.03127   2.78743
   R16        2.67569  -0.00966  -0.02984   0.01628  -0.01356   2.66213
   R17        2.58741   0.06622   0.10421   0.01970   0.12391   2.71132
   R18        1.82614   0.00836   0.01345   0.00446   0.01791   1.84405
    A1        2.04257  -0.01151  -0.03291  -0.00224  -0.03506   2.00751
    A2        2.28517  -0.00919  -0.02797   0.00785  -0.02072   2.26445
    A3        1.95544   0.02071   0.06087  -0.00562   0.05575   2.01119
    A4        2.06322  -0.00201  -0.00204  -0.00630  -0.00836   2.05486
    A5        2.12130   0.01027   0.03594  -0.01049   0.02548   2.14677
    A6        2.09867  -0.00826  -0.03389   0.01679  -0.01712   2.08155
    A7        2.11041  -0.00085  -0.00220  -0.00082  -0.00295   2.10746
    A8        2.14451   0.00503   0.02522  -0.02302   0.00205   2.14656
    A9        2.02826  -0.00418  -0.02302   0.02384   0.00090   2.02916
   A10        2.15487   0.00724   0.02910  -0.00767   0.02130   2.17617
   A11        2.07175  -0.00507  -0.01961   0.01066  -0.00869   2.06306
   A12        2.05657  -0.00217  -0.00950  -0.00299  -0.01261   2.04396
   A13        1.87843  -0.01596  -0.03028  -0.03053  -0.06106   1.81737
   A14        2.17367   0.01793   0.04153   0.02822   0.06985   2.24352
   A15        2.23107  -0.00197  -0.01126   0.00229  -0.00886   2.22222
   A16        1.94068  -0.00038   0.00208  -0.02326  -0.02107   1.91961
   A17        1.83752   0.00641   0.02903  -0.00653   0.02197   1.85949
   A18        1.92557  -0.00572  -0.01486  -0.02034  -0.03536   1.89021
   A19        1.92587  -0.00295  -0.01453   0.01112  -0.00348   1.92239
   A20        1.89910   0.00175   0.00281   0.00719   0.00918   1.90828
   A21        1.93500   0.00088  -0.00429   0.03157   0.02795   1.96296
   A22        2.09213  -0.00747  -0.03350   0.01852  -0.01537   2.07676
   A23        2.09411   0.00876   0.02486   0.00657   0.03159   2.12570
   A24        1.88755  -0.00340  -0.01523   0.01665   0.00191   1.88946
   A25        2.30152  -0.00536  -0.00963  -0.02323  -0.03354   2.26798
   A26        1.86583  -0.00776  -0.04440   0.02599  -0.01875   1.84708
   A27        1.87524  -0.01022  -0.04023   0.02103  -0.01921   1.85604
   A28        1.83060  -0.02085  -0.09028   0.02587  -0.06441   1.76619
    D1        3.14101  -0.00016  -0.00065  -0.00048  -0.00106   3.13995
    D2       -0.00035  -0.00008  -0.00040   0.00117   0.00083   0.00047
    D3        0.00095   0.00029   0.00107   0.00553   0.00645   0.00741
    D4       -3.14041   0.00037   0.00133   0.00718   0.00835  -3.13206
    D5        0.00031   0.00007   0.00035  -0.00335  -0.00310  -0.00279
    D6       -3.14062   0.00013   0.00109   0.00347   0.00480  -3.13582
    D7        3.14065  -0.00032  -0.00106  -0.00824  -0.00955   3.13110
    D8       -0.00028  -0.00026  -0.00031  -0.00141  -0.00165  -0.00192
    D9       -3.14102   0.00019   0.00064   0.00227   0.00277  -3.13825
   D10        0.00205   0.00065   0.00229   0.00804   0.01036   0.01241
   D11        0.00017   0.00005   0.00019   0.00065   0.00078   0.00095
   D12       -3.14119   0.00012   0.00045   0.00233   0.00270  -3.13849
   D13       -0.00035  -0.00006  -0.00039  -0.00079  -0.00116  -0.00151
   D14        3.14135  -0.00007  -0.00028  -0.00241  -0.00267   3.13868
   D15        3.14137  -0.00002  -0.00025  -0.00025  -0.00046   3.14091
   D16       -0.00012  -0.00003  -0.00014  -0.00187  -0.00196  -0.00208
   D17        0.00009   0.00001   0.00010  -0.00034  -0.00025  -0.00016
   D18       -3.14139   0.00006   0.00023   0.00017   0.00043  -3.14096
   D19       -0.00008  -0.00002  -0.00009   0.00370   0.00367   0.00359
   D20        3.14066  -0.00009  -0.00104  -0.00499  -0.00609   3.13457
   D21       -3.14158  -0.00003   0.00001   0.00217   0.00228  -3.13930
   D22       -0.00083  -0.00010  -0.00093  -0.00652  -0.00748  -0.00832
   D23       -2.08298   0.00048   0.00215   0.01324   0.01572  -2.06726
   D24        0.00275   0.00060   0.00309   0.01023   0.01320   0.01596
   D25        2.09140   0.00237   0.00727   0.03328   0.04005   2.13144
   D26        1.05450  -0.00049  -0.00245   0.00976   0.00747   1.06197
   D27        3.14024  -0.00038  -0.00152   0.00675   0.00495  -3.13800
   D28       -1.05431   0.00139   0.00267   0.02979   0.03180  -1.02251
   D29       -0.00161  -0.00023  -0.00180  -0.00578  -0.00745  -0.00906
   D30        3.14075  -0.00017  -0.00094   0.00214   0.00127  -3.14116
   D31       -3.13891   0.00072   0.00300  -0.00222   0.00042  -3.13849
   D32        0.00345   0.00079   0.00387   0.00570   0.00914   0.01259
   D33       -0.00289  -0.00075  -0.00324  -0.01105  -0.01428  -0.01717
   D34        2.09266   0.00100   0.00870  -0.03669  -0.02843   2.06424
   D35       -2.08526   0.00181  -0.00040   0.00043  -0.00030  -2.08555
   D36        2.42825  -0.00120  -0.00233   0.02328   0.02143   2.44968
   D37        0.29478   0.00176   0.00275   0.06042   0.06331   0.35809
   D38       -1.82628   0.00373   0.02176   0.02188   0.04302  -1.78326
   D39        3.13422  -0.00009   0.00018  -0.00835  -0.00817   3.12605
         Item               Value     Threshold  Converged?
 Maximum Force            0.110497     0.000015     NO 
 RMS     Force            0.016418     0.000010     NO 
 Maximum Displacement     0.168506     0.000060     NO 
 RMS     Displacement     0.039200     0.000040     NO 
 Predicted change in Energy=-3.504822D-02
 GradGradGradGradGradGradGradGradGradGradGradGradGradGradGradGradGradGrad

                          Input orientation:                          
 ---------------------------------------------------------------------
 Center     Atomic      Atomic             Coordinates (Angstroms)
 Number     Number       Type             X           Y           Z
 ---------------------------------------------------------------------
      1          6           0       -1.908072    0.011163   -0.009920
      2          6           0       -2.588138    1.290828   -0.003059
      3          6           0       -0.558725    2.432673    0.010729
      4          6           0        0.179792    1.294060    0.004117
      5          6           0        0.015713   -1.206355   -0.019231
      6          6           0       -1.237214   -2.095260   -0.021750
      7          1           0       -3.678144    1.286055   -0.008790
      8          1           0       -0.077942    3.406121    0.019956
      9          1           0        1.265307    1.261487    0.005999
     10          1           0       -1.254381   -2.722328    0.879732
     11          7           0       -1.954589    2.433223    0.007220
     12          7           0       -0.485786    0.084812   -0.004019
     13          7           0       -2.397884   -1.185021   -0.029574
     14          8           0        1.139257   -1.530681   -0.016710
     15          8           0       -1.192128   -2.920059   -1.162896
     16          8           0       -1.668379   -4.208574   -0.748798
     17          1           0       -1.620076   -4.706628   -1.586563
 ---------------------------------------------------------------------
                    Distance matrix (angstroms):
                    1          2          3          4          5
     1  C    0.000000
     2  C    1.449165   0.000000
     3  C    2.772160   2.328630   0.000000
     4  C    2.450550   2.767942   1.357163   0.000000
     5  C    2.276706   3.607802   3.684210   2.505902   0.000000
     6  C    2.210704   3.645675   4.578601   3.673700   1.536225
     7  H    2.181400   1.090032   3.323536   3.857967   4.456097
     8  H    3.856943   3.282694   1.085743   2.127788   4.613594
     9  H    3.410850   3.853568   2.167670   1.086005   2.766291
    10  H    2.948011   4.320145   5.273817   4.353725   2.172429
    11  N    2.422567   1.306353   1.395868   2.419356   4.138759
    12  N    1.424204   2.423708   2.349040   1.380341   1.385224
    13  N    1.292733   2.483290   4.058552   3.576506   2.413714
    14  O    3.415193   4.674888   4.311853   2.983315   1.169420
    15  O    3.230170   4.585373   5.516370   4.582890   2.388228
    16  O    4.290638   5.625434   6.776015   5.853341   3.518772
    17  H    4.982599   6.278066   7.392390   6.463594   4.169442
                    6          7          8          9         10
     6  C    0.000000
     7  H    4.170324   0.000000
     8  H    5.622353   4.178153   0.000000
     9  H    4.187020   4.943535   2.530607   0.000000
    10  H    1.098261   4.767729   6.299295   4.794061   0.000000
    11  N    4.585044   2.070482   2.113881   3.426470   5.275536
    12  N    2.306008   3.410888   3.346343   2.109738   3.041675
    13  N    1.475043   2.783113   5.144237   4.405183   2.120790
    14  O    2.442619   5.580450   5.084775   2.795104   2.820129
    15  O    1.408737   5.020322   6.531547   4.989051   2.053120
    16  O    2.276092   5.897263   7.816908   6.252824   2.243309
    17  H    3.068300   6.529721   8.412834   6.817631   3.186501
                   11         12         13         14         15
    11  N    0.000000
    12  N    2.769936   0.000000
    13  N    3.645485   2.295484   0.000000
    14  O    5.028418   2.291450   3.554013   0.000000
    15  O    5.532463   3.297145   2.397629   2.946094   0.000000
    16  O    6.690811   4.515128   3.192386   3.948403   1.434769
    17  H    7.323218   5.171939   3.928220   4.490545   1.885328
                   16         17
    16  O    0.000000
    17  H    0.975828   0.000000
 Symmetry turned off by external request.
 Stoichiometry    C6H5N3O3
 Framework group  C1[X(C6H5N3O3)]
 Deg. of freedom    45
 Full point group                 C1      NOp   1
 Rotational constants (GHZ):           2.2366856           0.6718123           0.5327985
 Standard basis: 6-31G(d) (6D, 7F)
   190 basis functions,   356 primitive gaussians,   190 cartesian basis functions
    43 alpha electrons       43 beta electrons
       nuclear repulsion energy       685.9255141549 Hartrees.
 NAtoms=   17 NActive=   17 NUniq=   17 SFac= 1.00D+00 NAtFMM=   60 NAOKFM=F Big=F
 Integral buffers will be    131072 words long.
 Raffenetti 1 integral format.
 Two-electron integral symmetry is turned off.
 One-electron integrals computed using PRISM.
 NBasis=   190 RedAO= T EigKep=  9.86D-04  NBF=   190
 NBsUse=   190 1.00D-06 EigRej= -1.00D+00 NBFU=   190
 Initial guess from the checkpoint file:  "frg_mp2.chk"
 B after Tr=    -0.002403    0.008630   -0.004120
         Rot=    1.000000    0.000413   -0.000706   -0.000441 Ang=   0.11 deg.
 ExpMin= 1.61D-01 ExpMax= 5.48D+03 ExpMxC= 8.25D+02 IAcc=2 IRadAn=         4 AccDes= 0.00D+00
 Harris functional with IExCor=  205 and IRadAn=       4 diagonalized for initial guess.
 HarFok:  IExCor=  205 AccDes= 0.00D+00 IRadAn=         4 IDoV= 1 UseB2=F ITyADJ=14
 ICtDFT=  3500011 ScaDFX=  1.000000  1.000000  1.000000  1.000000
 FoFCou: FMM=F IPFlag=           0 FMFlag=      100000 FMFlg1=           0
         NFxFlg=           0 DoJE=T BraDBF=F KetDBF=T FulRan=T
         wScrn=  0.000000 ICntrl=       500 IOpCl=  0 I1Cent=   200000004 NGrid=           0
         NMat0=    1 NMatS0=      1 NMatT0=    0 NMatD0=    1 NMtDS0=    0 NMtDT0=    0
 Symmetry not used in FoFCou.
 Keep R1 ints in memory in canonical form, NReq=168114207.
 Requested convergence on RMS density matrix=1.00D-08 within 128 cycles.
 Requested convergence on MAX density matrix=1.00D-06.
 Requested convergence on             energy=1.00D-06.
 No special actions if energy rises.
 SCF Done:  E(RHF) =  -617.900640890     A.U. after   14 cycles
            NFock= 14  Conv=0.94D-08     -V/T= 2.0027
 ExpMin= 1.61D-01 ExpMax= 5.48D+03 ExpMxC= 8.25D+02 IAcc=3 IRadAn=         5 AccDes= 0.00D+00
 HarFok:  IExCor=  205 AccDes= 0.00D+00 IRadAn=         5 IDoV=-2 UseB2=F ITyADJ=14
 ICtDFT= 12500011 ScaDFX=  1.000000  1.000000  1.000000  1.000000
 Range of M.O.s used for correlation:    13   190
 NBasis=   190 NAE=    43 NBE=    43 NFC=    12 NFV=     0
 NROrb=    178 NOA=    31 NOB=    31 NVA=   147 NVB=   147
 Fully direct method using O(ONN) memory.
 JobTyp=1 Pass  1:  I=  13 to  43 NPSUse=  4 ParTrn=T ParDer=T DoDerP=T.
 Spin components of T(2) and E(2):
     alpha-alpha T2 =       0.7896474658D-01 E2=     -0.2424247641D+00
     alpha-beta  T2 =       0.4167996947D+00 E2=     -0.1283164215D+01
     beta-beta   T2 =       0.7896474658D-01 E2=     -0.2424247641D+00
 ANorm=    0.1254882141D+01
 E2 =    -0.1768013744D+01 EUMP2 =    -0.61966865463403D+03
          IDoAtm=11111111111111111
          Differentiating once with respect to electric field.
                with respect to dipole field.
          Differentiating once with respect to nuclear coordinates.
 Keep R1 ints in memory in canonical form, NReq=168116261.
          There are     1 degrees of freedom in the 1st order CPHF.  IDoFFX=0 NUNeed=     1.
 LinEq1:  Iter=  0 NonCon=     1 RMS=5.01D-03 Max=8.74D-02 NDo=     1
 AX will form     1 AO Fock derivatives at one time.
 LinEq1:  Iter=  1 NonCon=     1 RMS=1.57D-03 Max=3.41D-02 NDo=     1
 LinEq1:  Iter=  2 NonCon=     1 RMS=6.49D-04 Max=1.54D-02 NDo=     1
 LinEq1:  Iter=  3 NonCon=     1 RMS=2.86D-04 Max=8.78D-03 NDo=     1
 LinEq1:  Iter=  4 NonCon=     1 RMS=8.89D-05 Max=2.21D-03 NDo=     1
 LinEq1:  Iter=  5 NonCon=     1 RMS=3.61D-05 Max=7.72D-04 NDo=     1
 LinEq1:  Iter=  6 NonCon=     1 RMS=1.50D-05 Max=6.43D-04 NDo=     1
 LinEq1:  Iter=  7 NonCon=     1 RMS=5.75D-06 Max=1.49D-04 NDo=     1
 LinEq1:  Iter=  8 NonCon=     1 RMS=2.18D-06 Max=5.56D-05 NDo=     1
 LinEq1:  Iter=  9 NonCon=     1 RMS=7.38D-07 Max=1.90D-05 NDo=     1
 LinEq1:  Iter= 10 NonCon=     1 RMS=3.16D-07 Max=6.81D-06 NDo=     1
 LinEq1:  Iter= 11 NonCon=     1 RMS=8.99D-08 Max=1.89D-06 NDo=     1
 LinEq1:  Iter= 12 NonCon=     1 RMS=2.49D-08 Max=2.65D-07 NDo=     1
 LinEq1:  Iter= 13 NonCon=     1 RMS=9.40D-09 Max=1.52D-07 NDo=     1
 LinEq1:  Iter= 14 NonCon=     1 RMS=2.96D-09 Max=3.37D-08 NDo=     1
 LinEq1:  Iter= 15 NonCon=     1 RMS=1.34D-09 Max=2.08D-08 NDo=     1
 LinEq1:  Iter= 16 NonCon=     1 RMS=5.13D-10 Max=7.99D-09 NDo=     1
 LinEq1:  Iter= 17 NonCon=     1 RMS=1.51D-10 Max=2.11D-09 NDo=     1
 LinEq1:  Iter= 18 NonCon=     0 RMS=5.41D-11 Max=6.64D-10 NDo=     1
 Linear equations converged to 1.000D-10 1.000D-09 after    18 iterations.
 End of Minotr F.D. properties file   721 does not exist.
 End of Minotr F.D. properties file   722 does not exist.
 End of Minotr F.D. properties file   788 does not exist.
 Calling FoFJK, ICntrl=  10002127 FMM=F ISym2X=0 I1Cent= 0 IOpClX= 0 NMat=1 NMatS=1 NMatT=0.
 -------------------------------------------------------------------
 Center     Atomic                   Forces (Hartrees/Bohr)
 Number     Number              X              Y              Z
 -------------------------------------------------------------------
      1        6           0.014601354   -0.004073264   -0.000053012
      2        6           0.001196679   -0.000189154   -0.000010450
      3        6          -0.003041317   -0.000736249   -0.000125137
      4        6           0.003914918   -0.002156744   -0.000503489
      5        6          -0.067464730    0.007102501   -0.003620764
      6        6          -0.016373261    0.003258786    0.000465112
      7        1           0.001031468    0.000971956    0.000097704
      8        1          -0.001319796   -0.001048099    0.000064538
      9        1          -0.000470224   -0.001566489    0.000039229
     10        1           0.000105423    0.000786654   -0.000786093
     11        7           0.000117458    0.002971011   -0.000164279
     12        7          -0.017683081    0.024393946    0.002602826
     13        7          -0.005376424   -0.010897655    0.000456216
     14        8           0.087401478   -0.022590123    0.000234876
     15        8           0.012893200    0.019452155   -0.011058249
     16        8          -0.011577068   -0.020570105    0.016311589
     17        1           0.002043924    0.004890873   -0.003950617
 -------------------------------------------------------------------
 Cartesian Forces:  Max     0.087401478 RMS     0.017667156

 GradGradGradGradGradGradGradGradGradGradGradGradGradGradGradGradGradGrad
 Berny optimization.
 Using GEDIIS/GDIIS optimizer.
 FormGI is forming the generalized inverse of G from B-inverse, IUseBI=4.
 Internal  Forces:  Max     0.090238321 RMS     0.010610659
 Search for a local minimum.
 Step number   3 out of a maximum of   95
 All quantities printed in internal units (Hartrees-Bohrs-Radians)
 Mixed Optimization -- RFO/linear search
 Update second derivatives using D2CorX and points    2    3
 DE= -2.41D-02 DEPred=-3.50D-02 R= 6.89D-01
 TightC=F SS=  1.41D+00  RLast= 3.98D-01 DXNew= 8.4853D-01 1.1948D+00
 Trust test= 6.89D-01 RLast= 3.98D-01 DXMaxT set to 8.49D-01
 ITU=  1  1  0
 Use linear search instead of GDIIS.
     Eigenvalues ---    0.00746   0.01118   0.01268   0.01292   0.01346
     Eigenvalues ---    0.01558   0.01639   0.01858   0.01955   0.02034
     Eigenvalues ---    0.02302   0.02353   0.06587   0.07808   0.08654
     Eigenvalues ---    0.15635   0.16000   0.16002   0.16007   0.16274
     Eigenvalues ---    0.21657   0.22486   0.23464   0.24168   0.24800
     Eigenvalues ---    0.25010   0.25515   0.28420   0.30622   0.31683
     Eigenvalues ---    0.32574   0.33673   0.33723   0.33787   0.37329
     Eigenvalues ---    0.38457   0.40312   0.41111   0.45292   0.50719
     Eigenvalues ---    0.51667   0.53296   0.55357   0.57867   0.77051
 RFO step:  Lambda=-1.36354336D-02 EMin= 7.46436336D-03
 Quartic linear search produced a step of -0.18086.
 Iteration  1 RMS(Cart)=  0.04219843 RMS(Int)=  0.00178451
 Iteration  2 RMS(Cart)=  0.00220693 RMS(Int)=  0.00010442
 Iteration  3 RMS(Cart)=  0.00000858 RMS(Int)=  0.00010426
 Iteration  4 RMS(Cart)=  0.00000000 RMS(Int)=  0.00010426
 Variable       Old X    -DE/DX   Delta X   Delta X   Delta X     New X
                                 (Linear)    (Quad)   (Total)
    R1        2.73853   0.00200  -0.00440   0.01210   0.00770   2.74622
    R2        2.69135  -0.00716   0.01294  -0.04482  -0.03185   2.65951
    R3        2.44291   0.00624   0.01359  -0.02102  -0.00743   2.43549
    R4        2.05986  -0.00104   0.00102  -0.00583  -0.00480   2.05506
    R5        2.46865   0.00018   0.00812  -0.01859  -0.01048   2.45817
    R6        2.56467   0.00085  -0.00079   0.00258   0.00179   2.56646
    R7        2.05176  -0.00152   0.00185  -0.00912  -0.00727   2.04449
    R8        2.63781  -0.00238   0.00844  -0.02506  -0.01663   2.62118
    R9        2.05225  -0.00042   0.00224  -0.00683  -0.00459   2.04766
   R10        2.60847  -0.00280   0.00895  -0.02741  -0.01844   2.59002
   R11        2.90304   0.00868  -0.00908   0.03932   0.03022   2.93326
   R12        2.61769   0.01692  -0.00942   0.04242   0.03301   2.65070
   R13        2.20988   0.09024   0.05157   0.05586   0.10743   2.31731
   R14        2.07541  -0.00110   0.00329  -0.01170  -0.00841   2.06700
   R15        2.78743  -0.00571   0.00565  -0.03069  -0.02507   2.76236
   R16        2.66213  -0.00316   0.00245  -0.01336  -0.01090   2.65122
   R17        2.71132   0.02081  -0.02241   0.07313   0.05072   2.76204
   R18        1.84405   0.00100  -0.00324   0.00816   0.00492   1.84897
    A1        2.00751  -0.00339   0.00634  -0.02731  -0.02093   1.98658
    A2        2.26445  -0.00297   0.00375  -0.01987  -0.01610   2.24835
    A3        2.01119   0.00636  -0.01008   0.04709   0.03691   2.04811
    A4        2.05486  -0.00013   0.00151  -0.00166  -0.00014   2.05472
    A5        2.14677   0.00225  -0.00461   0.02202   0.01739   2.16416
    A6        2.08155  -0.00212   0.00310  -0.02036  -0.01726   2.06429
    A7        2.10746   0.00041   0.00053   0.00105   0.00158   2.10904
    A8        2.14656   0.00066  -0.00037   0.00696   0.00659   2.15315
    A9        2.02916  -0.00107  -0.00016  -0.00801  -0.00817   2.02099
   A10        2.17617   0.00254  -0.00385   0.02399   0.02012   2.19629
   A11        2.06306  -0.00185   0.00157  -0.01180  -0.01020   2.05285
   A12        2.04396  -0.00070   0.00228  -0.01219  -0.00992   2.03404
   A13        1.81737  -0.00634   0.01104  -0.04401  -0.03316   1.78422
   A14        2.24352   0.00597  -0.01263   0.04835   0.03567   2.27919
   A15        2.22222   0.00036   0.00160  -0.00464  -0.00306   2.21916
   A16        1.91961  -0.00023   0.00381  -0.01002  -0.00614   1.91346
   A17        1.85949   0.00506  -0.00397   0.03075   0.02665   1.88615
   A18        1.89021  -0.00368   0.00640  -0.02715  -0.02091   1.86930
   A19        1.92239  -0.00177   0.00063  -0.01048  -0.00978   1.91261
   A20        1.90828   0.00071  -0.00166  -0.00031  -0.00200   1.90629
   A21        1.96296  -0.00007  -0.00506   0.01693   0.01201   1.97497
   A22        2.07676  -0.00226   0.00278  -0.01747  -0.01472   2.06204
   A23        2.12570   0.00459  -0.00571   0.02758   0.02184   2.14754
   A24        1.88946  -0.00195  -0.00035  -0.00417  -0.00469   1.88478
   A25        2.26798  -0.00264   0.00607  -0.02362  -0.01761   2.25037
   A26        1.84708  -0.00316   0.00339  -0.03043  -0.02724   1.81984
   A27        1.85604  -0.00773   0.00347  -0.03604  -0.03257   1.82347
   A28        1.76619  -0.01204   0.01165  -0.09918  -0.08754   1.67865
[...]
   xx         0.995289D+02      0.147487D+02      0.164101D+02
   yx         0.577377D+01      0.855584D+00      0.951965D+00
   yy         0.472959D+02      0.700853D+01      0.779804D+01
   zx         0.555529D+01      0.823209D+00      0.915944D+00
   zy         0.208905D+02      0.309565D+01      0.344437D+01
   zz         0.111554D+03      0.165306D+02      0.183928D+02

 ----------------------------------------------------------------------

 Test job not archived.
 1\1\GINC-K006\Freq\RMP2-FC\6-31G(d)\C6H5N3O3\ZILINS\16-Jan-2019\0\\#MP
 2/6-31G* NOSYMM GEOM=ALLCHECK FREQ IOP(7/33=1)\\frg_mp2 opt\\0,1\C,-1.
 8090138881,-0.1726337192,-0.0543479238\C,-2.5907071731,1.0436259619,-0
 .1661681703\C,-0.6775706045,2.3574179913,-0.0755201181\C,0.1519034033,
 1.2857189162,0.0372468129\C,0.2061832988,-1.2261300691,0.110296406\C,-
 0.985841195,-2.2056533049,0.0706731498\H,-3.6724384532,0.9542778529,-0
 .2482726917\H,-0.2847387148,3.3674669253,-0.0900589004\H,1.2332400695,
 1.3192922403,0.1193721932\H,-1.0218411138,-2.8209962012,0.9793011452\N
 ,-2.0594769454,2.2397763919,-0.1777740297\N,-0.4269787875,0.0367797602
 ,0.056457223\N,-2.2067952597,-1.4117243764,-0.0517395235\O,1.400705176
 7,-1.4242409779,0.185741426\O,-0.7833348145,-3.0159586201,-1.070958454
 4\O,-1.8728586884,-3.9937375594,-1.030619389\H,-2.6218255105,-3.407763
 832,-1.2771863551\\Version=ES64L-G16RevA.03\HF=-617.9010058\MP2=-619.6
 818732\RMSD=5.432e-09\RMSF=1.113e-06\ZeroPoint=0.118066\Thermal=0.1275
 857\Dipole=-0.2212487,1.204826,0.3565105\DipoleDeriv=0.4851101,0.38247
 29,0.0202924,0.3713001,0.7207328,0.0400312,-0.0246193,-0.0144153,0.240
 5172,0.4451492,-0.0077186,0.0225136,-0.2871612,-0.0227112,-0.0263228,0
 .0542996,0.0137418,0.0552746,-0.3507695,-0.1794647,-0.0242578,0.361346
 3,0.1861849,0.0147554,-0.0364169,-0.0246187,-0.0720286,0.0559522,0.371
 9053,0.0002975,-0.4608491,0.4528233,-0.054846,0.0267234,0.0175158,0.02
 59338,1.289167,-0.4486887,0.1115306,-0.8115387,1.1275047,-0.0727272,0.
 0933025,-0.075392,0.2239113,0.0951351,-0.5496858,-0.0471717,-0.1575692
 ,0.7705632,0.098881,0.0587287,0.1962578,0.5742849,-0.0113141,0.0011027
 ,-0.0072839,-0.0361586,0.0546087,-0.0018627,-0.0095148,0.0019039,0.094
 8019,0.0419728,-0.0326989,-0.0054864,-0.0562718,-0.0014552,0.0008249,-
 0.0041611,0.0003702,0.1377692,0.0639652,-0.0349997,-0.005777,0.0314671
 ,0.0915126,0.0052014,-0.0109716,0.0045298,0.1466003,0.087789,0.0845911
 ,0.0151964,-0.0289541,-0.0239929,0.0444147,-0.0444485,-0.027266,-0.025
 6916,0.1447842,0.2742013,0.0306648,0.1077129,-0.3282349,0.0083461,0.02
 66786,0.0213363,-0.2606115,-0.8771119,-0.4140384,-0.0669404,1.0730884,
 -1.1420286,0.0918129,-0.1074026,-0.0322481,-0.0992791,-0.4264375,0.083
 7689,0.0390159,-0.2417962,-1.0491177,-0.0724536,0.0102165,0.0314167,-0
 .4411243,-0.9675769,0.3153985,-0.0633049,0.1036978,-0.4557735,0.010119
 ,-0.0568486,0.0317389,-0.2820688,-0.1120099,0.2326354,-0.0162682,-0.03
 43964,-0.4599154,-0.0329325,-0.011514,-0.1247434,-0.3254841,-0.2237971
 ,-0.1752353,-0.0124562,-0.0432548,-0.2227738,-0.1243618,0.0017428,-0.1
 752989,-0.3566599,0.259992,0.096454,0.0094352,0.1093374,0.302073,0.071
 12,0.0342052,0.1551711,0.3638547\Polar=97.6691341,4.2351496,119.203666
 5,6.0524442,1.968457,41.5059584\PG=C01 [X(C6H5N3O3)]\NImag=0\\0.615522
 86,0.00338874,0.89667811,0.04098234,-0.02154246,0.13871972,-0.18559308
 ,0.07614035,-0.01365548,0.77469085,0.07116957,-0.18122907,0.01086196,0
 .09691474,0.69514713,-0.01376570,0.01090372,-0.05938687,0.04749531,-0.
 01698612,0.12832581,-0.02572370,0.02207667,-0.00244014,-0.03840895,-0.
 05569068,-0.00014350,0.61900773,0.01620600,-0.00204975,0.00133070,-0.0
 4942343,-0.00885394,-0.00385767,-0.01316294,0.83933827,-0.00238694,0.0
 0174243,-0.00843513,-0.00041472,-0.00439653,-0.00242647,0.03967519,-0.
 03382482,0.11553870,-0.01240303,-0.03659802,0.00155657,0.00021269,0.01
 817556,-0.00089048,-0.23758140,0.16792966,-0.02240768,0.81573123,-0.04
 885908,0.01359808,-0.00506831,0.00099739,-0.02770349,0.00193124,0.1340
 3787,-0.32816578,0.02274772,-0.07765914,0.71447475,0.00212166,-0.00387
 492,-0.00938813,-0.00039265,0.00291461,0.00360421,-0.02076381,0.025805
 14,-0.04495300,0.05742486,-0.03391315,0.11003490,-0.05634834,0.0231835
 6,-0.00401736,-0.00732440,0.00182214,-0.00084286,0.00056206,-0.0135709
 8,0.00079706,0.02917749,-0.00054668,0.00232404,1.04006021,0.05246500,0
 .03251486,0.00157817,-0.00278077,-0.01311779,-0.00012604,-0.02106605,0
 .01116824,-0.00230536,0.00354472,-0.05434882,0.00147967,-0.06379031,0.
 46609929,-0.00551647,0.00202328,0.00451126,-0.00104960,0.00013594,0.00
 326667,0.00043723,-0.00078865,0.00408287,0.00143400,0.00198735,-0.0063
 7916,0.05803993,-0.00809175,0.20577946,0.01253464,0.02111497,-0.002375
 43,-0.00033490,-0.01154415,0.00062531,-0.00855957,0.00442176,-0.000936
 23,-0.00534929,-0.00612014,-0.00079467,-0.09790753,-0.07391656,0.00469
 520,0.43111256,0.02472000,-0.07271790,0.00411862,-0.00422470,0.0045724
 0,-0.00228706,0.00411472,-0.00180362,0.00036218,0.00449329,-0.00074409
 ,-0.00018464,-0.02820283,-0.11085331,0.00804334,0.02286032,0.56633567,
 -0.00586109,0.00271758,0.00508851,-0.00011233,0.00071270,0.01414878,-0
 .00046711,-0.00042705,0.00101238,-0.00007423,0.00071304,0.00567102,0.0
 0467707,0.00064481,-0.09210700,-0.00258174,-0.07391792,0.54153695,-0.0
 1175227,-0.00422117,-0.00110147,-0.34667602,-0.01049119,-0.02427469,0.
 00244663,-0.00068364,-0.00096554,0.00041449,0.00073178,0.00001542,-0.0
 0001591,-0.00095042,0.00004832,0.00017458,0.00037856,-0.00000229,0.364
 50505,0.02656902,0.00615365,0.00217474,-0.00792412,-0.05548353,0.00024
 201,-0.00289761,-0.00282959,0.00059956,-0.00131790,-0.00233106,0.00000
 027,0.00131584,0.00140154,0.00008131,-0.00034503,-0.00038236,-0.000082
 12,0.02153534,0.06511414,-0.00237688,-0.00046138,0.00388109,-0.0244249
 0,-0.00002442,-0.03730317,-0.00090405,0.00076449,0.01494338,0.00011745
 ,0.00009929,-0.00022227,0.00003341,-0.00017459,-0.00116622,0.00004002,
 0.00010751,-0.00062229,0.02609289,-0.00010450,0.02627319,-0.00176491,0
 .00029456,-0.00009426,-0.00537194,-0.00095530,-0.00073710,-0.08783525,
 -0.09427022,-0.00028586,0.01096865,0.01934069,0.00016417,0.00164196,-0
 .00017760,-0.00013279,-0.00045387,0.00039065,0.00013665,-0.00023698,-0
 .00115214,-0.00000908,0.10439298,0.00044795,0.00004629,-0.00002227,0.0
 0122455,0.00245281,0.00017054,-0.09593470,-0.32821813,0.00592039,-0.01
 173923,-0.01586460,-0.00029500,-0.00163859,0.00030371,0.00007465,0.000
 45228,-0.00031744,-0.00001130,0.00013532,0.00005378,0.00003178,0.10446
 121,0.33891095,-0.00003709,-0.00003706,-0.00068738,-0.00081436,0.00006
 246,0.00457995,-0.00004796,0.00588816,-0.03018524,0.00148368,0.0023331
 6,-0.00266486,0.00005586,0.00025583,0.00200986,0.00005320,0.00014129,-
 0.00127265,-0.00005813,-0.00006403,0.00045687,0.00163493,-0.00599305,0
 .02394829,0.00364380,-0.00062710,-0.00004843,0.00074766,0.00086130,-0.
 00002453,-0.00673288,-0.00533934,-0.00027709,-0.35968404,-0.00735598,-
 0.02535388,-0.00193367,0.00188804,-0.00009075,0.00004302,0.00028702,0.
 00003415,-0.00010488,0.00000144,0.00017843,0.00035558,0.00013194,0.000
 26383,0.37491594,0.00240546,-0.00414873,0.00067991,-0.00076757,-0.0019
 7195,0.00004775,0.02307885,0.00997860,0.00138610,-0.00023228,-0.059513
 31,0.00159153,-0.00319556,0.00172731,-0.00031202,-0.00065339,0.0005191
 0,-0.00013287,0.00007941,0.00038859,-0.00013339,-0.00034480,0.00026374
 ,-0.00019797,0.01317974,0.05898043,-0.00017363,0.00005958,0.00528337,-
 0.00001654,0.00046187,0.00041040,-0.00147971,-0.00083071,-0.00009423,-
 0.02574324,0.00104919,-0.03133027,-0.00013152,0.00016269,-0.00064118,0
 .00013791,-0.00002012,-0.00049501,0.00019591,-0.00014348,-0.00249882,0
 .00029976,-0.00016254,-0.00325661,0.02675777,-0.00100578,0.02383103,-0
 .00693472,-0.00016336,-0.00133100,0.00074710,0.00207000,0.00251174,0.0
 0140342,-0.00104687,0.00066112,0.00095672,0.00118672,-0.00043494,-0.00
 134763,-0.00931744,0.02239621,-0.04958019,-0.01227671,0.01196541,-0.00
 004664,0.00000649,-0.00015729,0.00011428,-0.00006693,0.00004212,-0.000
 01640,0.00006861,-0.00012405,0.05602058,0.00273745,0.00017187,0.001011
 61,-0.00020465,-0.00099436,-0.00111425,-0.00053007,0.00026326,-0.00002
 828,0.00021109,-0.00085480,0.00001938,-0.00138856,-0.00755818,0.016869
 35,-0.01294798,-0.13968341,0.13727606,0.00004649,-0.00004197,0.0000576
 1,0.00001798,-0.00003813,0.00000090,-0.00000338,0.00001554,0.00004202,
 0.00261211,0.15063675,-0.00123103,-0.00195272,-0.00027851,0.00002020,0
 .00081885,-0.00059714,0.00036878,-0.00001620,0.00011173,0.00010446,0.0
 0013758,-0.00023927,-0.00125445,0.00100394,0.00574811,0.00500705,0.123
 48309,-0.21893723,0.00004961,-0.00003900,0.00001265,0.00000524,-0.0000
 3053,0.00003486,-0.00000099,0.00008719,-0.00002689,-0.01093781,-0.1330
 4118,0.25060874,0.05133503,-0.00866936,0.00324580,-0.18771911,-0.13811
 285,-0.00577686,-0.25588489,-0.01767144,-0.01503479,-0.05711787,0.0538
 6460,-0.00758557,-0.00802132,0.01806437,-0.00060456,0.01106467,-0.0041
 0590,0.00010291,-0.00834047,-0.03828381,0.00185969,-0.01947551,-0.0021
 2480,-0.00125375,-0.00127695,0.00390995,-0.00115699,-0.00217675,0.0008
 1229,-0.00031865,0.50165931,-0.00063464,-0.06500220,0.00382543,-0.1331
 5306,-0.39900052,0.00546013,-0.01399327,-0.10829898,0.00180194,0.01445
 793,0.02861790,0.00007045,-0.00234647,0.00709929,-0.00045351,0.0033588
 0,-0.00375477,0.00064357,-0.00937174,-0.00869942,-0.00073087,-0.032469
 54,0.00466627,-0.00288525,0.00203661,-0.00354224,0.00058639,-0.0002391
 4,0.00003971,-0.00026780,0.17107314,0.55504624,0.00266042,0.00319293,0
 .02296596,-0.00571165,0.00508011,-0.04494338,-0.01514066,0.00130602,-0
 .05286933,-0.00575146,0.00335952,0.00678914,-0.00045811,0.00104086,-0.
 00217046,0.00074195,0.00037177,-0.00275220,0.00048331,-0.00311834,-0.0
 0920813,0.00017362,-0.00050540,-0.00306111,-0.00090181,0.00089631,0.00
 944906,-0.00091556,0.00033291,0.00015147,0.02596100,-0.00823159,0.0772
 9408,-0.24348803,-0.01644181,-0.01867427,-0.03012178,0.01221447,-0.003
 64953,0.03254610,0.00976411,0.00139606,-0.17797205,-0.07837837,-0.0056
 9977,-0.11726895,0.01240410,-0.00437666,-0.01071789,-0.00590640,-0.001
 61967,-0.00050824,0.00362907,-0.00057827,-0.00277087,0.00424792,-0.001
 33232,-0.01007429,-0.03817214,0.00138251,0.00086197,-0.00061402,0.0011
 8074,-0.01431081,-0.00770929,-0.00012990,0.65677881,0.00049221,-0.1463
 1232,0.00471479,0.02475575,0.03827475,0.00025529,0.03165145,-0.0812867
 7,0.00696448,-0.08240099,-0.26842520,0.00626895,-0.01144652,-0.1805086
 5,-0.00028192,0.01765709,-0.04739221,-0.00178787,0.00240633,-0.0047406
 4,0.00070303,0.00487900,-0.00259432,0.00057606,-0.00510451,-0.00220717
 ,-0.00038339,-0.00747125,-0.00064526,0.00004864,-0.05217848,-0.0162276
 3,-0.00364099,0.08910455,0.73371437,-0.01568054,0.00042958,-0.04896518
 ,-0.00277927,-0.00085289,-0.00413180,0.00016963,0.00485635,0.00548342,
 -0.00597684,0.00386657,-0.03366931,-0.00762336,0.00485719,-0.05446770,
 -0.00086165,0.00038943,0.01080687,-0.00047768,0.00053775,0.00499112,-0
 .00117873,0.00081153,0.01005265,-0.00044679,-0.00289309,-0.00087317,-0
 .00273111,-0.00180676,-0.00191329,0.00178399,-0.00002725,-0.00532575,0
 .03998155,-0.01319074,0.07853438,-0.13810315,-0.08030685,-0.00452417,0
 .02402287,0.01218769,0.00339049,0.00107270,-0.00561279,0.00080160,-0.0
 0188504,0.01417719,-0.00060847,-0.03930101,0.01420140,-0.00331666,-0.1
 5224545,0.01181197,-0.01809572,0.00049166,-0.00153900,-0.00004034,0.00
 064347,0.00012702,-0.00005211,-0.00099437,-0.00172612,-0.00023350,-0.0
 0470731,0.00508880,-0.00060888,-0.00812686,0.00929580,-0.00192606,-0.0
 3422606,-0.05772544,-0.00535389,0.36518332,-0.14701640,-0.46518050,-0.
 00194104,-0.00279084,-0.05378087,0.00260070,-0.01503774,0.00106113,-0.
 00138419,0.00045175,-0.00748415,0.00010280,0.01289102,-0.02327908,-0.0
 0069087,0.05985165,-0.08893651,0.02274789,-0.00003866,0.00221737,-0.00
 006609,-0.00017094,0.00042582,0.00003621,-0.00021663,-0.00137225,0.000
 26755,0.02542534,-0.01160616,0.00555525,0.01527539,0.01068092,0.000501
 22,-0.04816010,-0.00602898,-0.00208583,0.07122389,0.66826178,-0.006214
 10,0.00148329,-0.05481569,0.00247432,0.00367137,-0.00504846,0.00191240
 ,-0.00111786,-0.00197484,-0.00073948,0.00274667,0.00401634,-0.00171992
 ,0.00590775,0.00170497,-0.01795369,0.01147587,-0.08896066,0.00003167,-
 0.00016680,0.00014308,0.00007771,-0.00000256,0.00010978,-0.00020120,-0
 .00008803,0.00101804,-0.02415818,0.01293094,0.00300658,-0.00296192,-0.
 00009636,0.00343653,-0.00104082,-0.00807322,0.02518437,0.01975560,-0.0
 0351321,0.10886263,0.01101525,0.00444697,-0.00018741,-0.00043164,-0.00
 235594,0.00001036,0.00019414,0.00458549,-0.00028663,-0.00712154,-0.008
 53462,-0.00049045,-0.74538719,0.07762214,-0.04406500,-0.03795029,0.001
 87351,-0.00281185,-0.00024125,0.00032994,-0.00005085,-0.00041645,0.000
 40494,0.00001238,0.00117240,0.00213596,0.00009412,0.00135547,-0.000341
 98,-0.00036932,0.00317902,0.00071084,0.00027983,-0.05101225,0.05865364
 ,-0.00394524,-0.00680107,-0.00625022,-0.00008005,0.83015021,-0.0089856
 3,-0.01591166,-0.00001307,0.00243034,0.00361996,0.00021088,0.00440615,
 -0.00033489,0.00034604,-0.00033499,0.00945153,-0.00040344,0.08800552,-
 0.10797617,0.00764961,-0.00732921,0.01693212,-0.00053414,0.00034515,-0
 .00076576,0.00006290,0.00008238,0.00000523,-0.00004410,0.00026331,0.00
 092102,-0.00000806,-0.00002222,0.00042196,-0.00053677,-0.00326614,-0.0
 0155822,-0.00016077,0.06800247,-0.01329483,0.00406309,-0.00737791,0.00
 516292,-0.00187773,-0.13445938,0.10193374,0.00068048,0.00031529,0.0024
 8322,0.00005101,-0.00020645,-0.00029424,-0.00010011,0.00031324,-0.0002
 2179,-0.00037399,-0.00096143,-0.00104463,-0.04381954,0.00519075,-0.065
 28518,-0.00133212,-0.00041239,0.01730072,-0.00003660,0.00003169,0.0003
 3929,-0.00001803,0.00001533,-0.00005824,0.00009670,0.00011384,-0.00071
 923,-0.00332968,-0.00237568,-0.00064243,0.00027390,0.00010672,-0.00005
 109,-0.00478646,0.00452396,0.01618101,-0.00088397,0.00018740,0.0009921
 8,0.04988445,-0.00952612,0.03043911,-0.01074581,-0.00302228,0.00195936
 ,0.00131468,0.00285546,-0.00373112,0.00268585,-0.00155036,-0.00042059,
 0.00092258,0.00213003,0.00017136,0.00151956,-0.00992282,-0.02523199,-0
 .07401414,-0.00470501,0.01656816,-0.00007422,0.00002705,0.00020050,0.0
 0015587,-0.00009172,0.00005174,-0.00005263,0.00014553,0.00021027,0.003
 46924,0.00195283,0.00604659,-0.00361514,-0.00064212,0.00066153,0.00184
 311,-0.01034053,0.00510459,-0.00795510,0.02861255,0.02831293,0.0011573
 8,-0.00137580,0.00322926,0.26240325,0.00907449,0.00559994,-0.00207629,
 -0.00140342,-0.00341774,0.00312164,-0.00257517,0.00104061,0.00002062,0
 .00019621,-0.00219326,0.00043249,-0.00644709,-0.02599182,-0.01998381,0
 .02035815,-0.09095942,-0.08111741,0.00008392,-0.00002470,-0.00013304,-
 0.00003307,-0.00003558,-0.00007134,0.00001055,-0.00011815,-0.00006311,
 -0.00255646,0.00716430,0.00238897,0.00338378,0.00052580,-0.00046373,-0
 .00528313,0.00396998,-0.00001935,0.01664598,-0.03094243,-0.02706691,0.
 00205995,0.00223998,0.00166851,0.07882390,0.24191700,0.00766323,0.0054
 8776,-0.00084888,-0.00079831,-0.00271815,0.00000804,-0.00148368,0.0010
 3781,-0.00004253,-0.00090880,-0.00139601,-0.00027859,-0.00878268,-0.00
 839886,-0.00096926,0.04890944,-0.04673444,-0.19149811,0.00001093,0.000
 06717,-0.00005455,-0.00010224,0.00005356,0.00000570,0.00001807,-0.0001
 0101,-0.00004607,0.00866531,-0.03057508,-0.04065339,0.00213198,0.00033
 560,0.00027460,-0.00146588,0.00652846,-0.00234607,0.01105512,-0.023081
 32,0.00158215,0.00271476,0.00084224,0.00005342,-0.05714056,0.11367576,
 0.27110867,-0.00099586,-0.00015038,0.00058434,-0.00012625,0.00081546,-
 0.00021906,0.00073225,-0.00064689,0.00005724,0.00094697,0.00117648,-0.
 00002188,0.00303658,0.00240088,-0.00301636,-0.01674436,-0.01118104,0.0
 0048930,0.00000382,-0.00001136,0.00000789,0.00006918,-0.00005128,0.000
 00180,-0.00001270,0.00009152,-0.00000885,0.00022834,0.00272782,0.00172
 342,-0.00097343,-0.00044118,-0.00000817,0.00009929,-0.00365755,0.00016
 622,0.00311146,0.00523054,0.00261693,0.00067133,-0.00054815,0.00048900
 ,-0.14520240,-0.11903399,-0.00452107,0.42573473,-0.00310052,0.00045468
 ,-0.00039174,0.00020747,0.00044676,-0.00054475,0.00024519,-0.00058205,
 -0.00009610,0.00075154,0.00078060,0.00016175,0.00616616,0.00107382,-0.
 00568857,-0.03088381,-0.03424588,-0.00781350,0.00000934,-0.00001434,0.
 00001868,0.00007293,-0.00005185,-0.00000073,-0.00001943,-0.00000196,0.
 00003336,0.00163591,0.00293852,0.00258175,-0.00053738,-0.00011592,0.00
 011301,-0.00096879,-0.00449385,0.00124406,-0.00125664,-0.00091544,0.00
 129752,-0.00223963,-0.00021748,0.00091594,-0.03791999,-0.10924497,-0.0
 0413220,-0.10668061,0.35637147,-0.00089317,0.00089745,-0.00073266,-0.0
 0014216,-0.00002561,-0.00017039,-0.00024066,-0.00027829,-0.00002983,0.
 00078388,0.00024878,0.00006507,0.00341356,-0.00349639,-0.00371606,-0.0
 2709209,-0.02473795,0.00196938,0.00002743,-0.00000202,-0.00002452,0.00
 005877,-0.00007193,-0.00001981,-0.00003270,-0.00000677,-0.00001976,-0.
 00194962,0.00012203,0.00395368,0.00011958,-0.00009207,0.00011859,-0.00
 228842,-0.00344096,0.00039676,0.00101691,-0.00143375,0.00153760,-0.001
 67005,-0.00003633,0.00045517,0.01758426,0.01112804,-0.03720061,0.09515
 680,-0.06292301,0.07057714,-0.00019868,-0.00044550,0.00012101,0.000372
 24,0.00006373,0.00002220,0.00007578,0.00007188,0.00002781,-0.00021656,
 -0.00018873,-0.00007543,-0.00114189,-0.00066868,0.00034994,-0.00107201
 ,-0.00032744,-0.00234762,-0.00003938,0.00005678,0.00001139,-0.00001618
 ,0.00001414,-0.00000381,0.00000441,-0.00000314,-0.00001023,-0.00034749
 ,-0.00017622,0.00021501,-0.00019892,0.00006734,-0.00001827,0.00034193,
 0.00072527,-0.00015089,-0.00018006,0.00071940,-0.00011218,0.00046649,0
 .00016410,-0.00002431,-0.03381208,0.00669541,-0.00596562,-0.27057897,0
 .17451828,-0.08385231,0.30654137,-0.00107961,-0.00266535,0.00075926,0.
 00000198,0.00103945,-0.00002801,0.00127733,-0.00042661,0.00014381,0.00
 007082,0.00070569,-0.00017587,-0.00081065,0.00224578,-0.00057372,-0.00
 633474,0.00343163,0.00036854,0.00000520,-0.00001569,-0.00001701,0.0000
 3422,-0.00000854,-0.00000055,0.00000643,0.00008144,-0.00004547,0.00015
 520,-0.00022963,-0.00022106,-0.00143336,-0.00047623,-0.00007384,0.0022
 6738,-0.00180127,-0.00017964,0.00078503,0.00171645,0.00248927,0.001358
 38,-0.00062946,0.00009939,-0.04497671,0.00047046,-0.01089129,0.2299597
 3,-0.21218211,0.08414877,-0.18128662,0.20874398,0.00002850,-0.00138435
 ,0.00060532,0.00027112,0.00049031,-0.00004196,0.00064816,-0.00016066,0
 .00005990,-0.00003869,0.00011878,-0.00001118,-0.00069114,0.00047135,-0
 .00020096,-0.00628245,-0.00019857,-0.00088947,-0.00003909,-0.00001423,
 0.00005931,0.00000724,0.00001682,0.00000795,0.00002922,0.00006831,0.00
 000936,-0.00017269,0.00027841,-0.00033966,-0.00078576,-0.00004552,-0.0
 0009799,0.00170112,0.00021541,0.00006169,-0.00037596,0.00219727,-0.000
 79462,0.00096095,-0.00003423,0.00007271,0.00642372,-0.00144103,0.00090
 549,-0.09349754,0.07522452,-0.03715974,0.09181330,-0.07580259,0.037753
 84\\-0.00000011,0.00000121,-0.00000042,-0.00000057,-0.00000056,0.00000
 109,0.00000060,0.00000051,-0.00000040,-0.00000023,0.00000003,0.0000000
 2,0.00000246,-0.00000207,0.00000031,-0.00000202,-0.00000064,-0.0000010
 6,-0.00000004,-0.00000023,-0.00000055,0.00000004,0.00000012,-0.0000001
 2,0.00000014,0.00000017,0.00000020,0.00000035,0.00000015,0.00000044,0.
 00000030,0.00000016,0.00000004,-0.00000131,0.00000103,0.00000012,0.000
 00098,-0.00000104,0.00000018,-0.00000045,0.00000060,-0.00000008,-0.000
 00320,-0.00000252,0.00000033,0.00000331,0.00000294,0.00000008,-0.00000
 024,0.00000014,-0.00000019\\\@


 EDUCATION IS NOT TRAINING BUT RATHER THE PROCESS THAT EQUIPS YOU TO
 ENTERTAIN YOURSELF, A FRIEND, OR AN IDEA.  -- WALLACE STERLING
 Job cpu time:       0 days  2 hours 19 minutes 22.4 seconds.
 Elapsed time:       0 days  0 hours 34 minutes 56.1 seconds.
 File lengths (MBytes):  RWF=   9368 Int=      0 D2E=      0 Chk=      6 Scr=      2
 Normal termination of Gaussian 16 at Wed Jan 16 17:20:07 2019.
